
                                 *****************
                                 * O   R   C   A *
                                 *****************

                                            #,                                       
                                            ###                                      
                                            ####                                     
                                            #####                                    
                                            ######                                   
                                           ########,                                 
                                     ,,################,,,,,                         
                               ,,#################################,,                 
                          ,,##########################################,,             
                       ,#########################################, ''#####,          
                    ,#############################################,,   '####,        
                  ,##################################################,,,,####,       
                ,###########''''           ''''###############################       
              ,#####''   ,,,,##########,,,,          '''####'''          '####       
            ,##' ,,,,###########################,,,                        '##       
           ' ,,###''''                  '''############,,,                           
         ,,##''                                '''############,,,,        ,,,,,,###''
      ,#''                                            '''#######################'''  
     '                                                          ''''####''''         
             ,#######,   #######,   ,#######,      ##                                
            ,#'     '#,  ##    ##  ,#'     '#,    #''#        ,####,   ,####,        
            ##       ##  ##   ,#'  ##            #'  '#       #'       #'  '#        
            ##       ##  #######   ##           ,######,      #####,   #    #        
            '#,     ,#'  ##    ##  '#,     ,#' ,#      #,     #,   #   #,  ,#        
             '#######'   ##     ##  '#######'  #'      '#     '####' # '####'        



                #########################################################
                #                        -***-                          #
                #          Department of theory and spectroscopy        #
                #                                                       #
                #                      Frank Neese                      #
                #                                                       #
                #     Directorship, Architecture, Infrastructure        #
                #                    SHARK, DRIVERS                     #
                #        Core code/Algorithms in most modules           #
                #                                                       #
                #        Max Planck Institute fuer Kohlenforschung      #
                #                Kaiser Wilhelm Platz 1                 #
                #                 D-45470 Muelheim/Ruhr                 #
                #                      Germany                          #
                #                                                       #
                #                  All rights reserved                  #
                #                        -***-                          #
                #########################################################


                         Program Version 6.0.1  -  RELEASE   -


 With contributions from (in alphabetic order):
[Max-Planck-Institut fuer Kohlenforschung]                               
  Daniel Aravena         : Magnetic Suceptibility                        
  Michael Atanasov       : Ab Initio Ligand Field Theory (pilot matlab implementation)
  Alexander A. Auer      : GIAO ZORA, VPT2 properties, NMR spectrum      
  Ute Becker             : All parallelization in ORCA, NUMFREQ, NUMCALC 
  Giovanni Bistoni       : ED, misc. LED, open-shell LED, HFLD           
  Martin Brehm           : Molecular dynamics                            
  Dmytro Bykov           : pre 5.0 version of the SCF Hessian            
  Marcos Casanova-Páez   : Triplet and SCS-CIS(D). UHF-(DLPNO)-IP/EA/STEOM-CCSD. UHF-CVS-IP/STEOM-CCSD   
  Vijay G. Chilkuri      : MRCI spin determinant printing, contributions to CSF-ICE 
  Pauline Colinet        : FMM embedding                                 
  Dipayan Datta          : RHF DLPNO-CCSD density                        
  Achintya Kumar Dutta   : EOM-CC, STEOM-CC                              
  Nicolas Foglia         : Exact transition moments, OPA infrastructure, MCD improvements    
  Dmitry Ganyushin       : Spin-Orbit,Spin-Spin,Magnetic field MRCI      
  Miquel Garcia-Rates    : C-PCM and meta-GGA Hessian, CCSD/C-PCM, Gaussian charge scheme 
  Tiago L. C. Gouveia    : GS-ROHF, GS-ROCIS                             
  Yang Guo               : DLPNO-NEVPT2, F12-NEVPT2, CIM, IAO-localization        
  Andreas Hansen         : Spin unrestricted coupled pair/coupled cluster methods 
  Ingolf Harden          : AUTO-CI MPn and infrastructure                
  Benjamin Helmich-Paris : MC-RPA, TRAH-(SCF,CASSCF), AVAS, COSX integrals, SCF dyn. polar. 
  Lee Huntington         : MR-EOM, pCC                                   
  Robert Izsak           : Overlap fitted RIJCOSX, COSX-SCS-MP3, EOM     
  Riya Kayal             : Wick's Theorem for AUTO-CI, AUTO-CI UHF-CCSDT 
  Emily Kempfer          : AUTO-CI, RHF CISDT and CCSDT                  
  Christian Kollmar      : KDIIS, OOCD, Brueckner-CCSD(T), CCSD density, CASPT2, CASPT2-K, improved NEVPT2 
  Axel Koslowski         : Symmetry handling                             
  Simone Kossmann        : meta-GGA functionals, TD-DFT gradient, OOMP2, (MP2 Hessian; deprecated post 5.0) 
  Lucas Lang             : DCDCAS                                        
  Marvin Lechner         : AUTO-CI (C++ implementation), FIC-MRCC        
  Spencer Leger          : CASSCF response                               
  Dagmar Lenk            : GEPOL surface, SMD, ORCA-2-JSON               
  Dimitrios Liakos       : Extrapolation schemes; Compound Job, initial MDCI parallelization 
  Dimitrios Manganas     : Further ROCIS development; embedding schemes. LFT, Crystal Embedding 
  Dimitrios Pantazis     : SARC Basis sets                               
  Anastasios Papadopoulos: AUTO-CI, single reference methods and gradients 
  Taras Petrenko         : pre 6.0 DFT Hessian and TD-DFT gradient, (ASA, deprecated), ECA, 1-Electron XAS/XES, NRVS 
  Peter Pinski           : DLPNO-MP2, DLPNO-MP2 Gradient                 
  Christoph Reimann      : Effective Core Potentials                     
  Marius Retegan         : Local ZFS, SOC                                
  Christoph Riplinger    : Optimizer, TS searches, QM/MM, DLPNO-CCSD(T), (RO)-DLPNO pert. Triples 
  Michael Roemelt        : Original ROCIS implementation                 
  Masaaki Saitow         : Open-shell DLPNO-CCSD energy and density      
  Barbara Sandhoefer     : DKH picture change effects                    
  Kantharuban Sivalingam : CASSCF convergence/infrastructure, NEVPT2 and variants, FIC-MRCI 
  Bernardo de Souza      : ESD, SOC TD-DFT                               
  Georgi L. Stoychev     : AutoAux, RI-MP2 NMR, DLPNO-MP2 response, X2C  
  Van Anh Tran           : RI-MP2 g-tensors                              
  Willem Van den Heuvel  : Paramagnetic NMR                              
  Zikuan Wang            : NOTCH, Electric field optimization            
  Frank Wennmohs         : Technical directorship and infrastructure     
  Hang Xu                : AUTO-CI-Response properties                   
                                                                         
[FACCTs GmbH]                                                            
  Markus Bursch, Miquel Garcia-Rates, Christoph Riplinger, Bernardo de Souza, Georgi L. Stoychev 
                                                                 
  APM, Basis sets (HGBS, AHGBS, def-TZVP (Ac-Lr), def2-XVPD (La-Lu)), CI-OPT, improved COSX, DLPNO-Multilevel,           
  DOCKER, DRACO, updates on ESD, GOAT, IRC, LR-CPCM, MBIS, meta-GGA TD-DFT gradient, ML-optimized integration grids, 
  MM, NACMEs, nearIR, NEB, NEB-TS, NL-DFT gradient (VV10), 2- and 3-layer-ONIOM, interface openCOSMO-RS, QMMM,   
  Crystal-QMMM, SF, symmetry and pop. for TD-DFT, r2SCAN hybrids, SOLVATOR                                   
                                                                         
[Other institutions]                                                     
  V. Asgeirsson          : NEB                                           
  Christoph Bannwarth    : sTDA-DFT, sTD-DFT, PBEh-3c, B97-3c, D3        
  Sebastian Ehlert       : rSCAN, r2SCAN, r2SCAN-3c, D4, dhf basis sets  
  Marvin Friede          : D4 for Fr, Ra, Ac-Lr                          
  Lars Goerigk           : TD-DFT with DH, B97 family of functionals     
  Stefan Grimme          : VdW corrections, initial TS optimization, DFT functionals, gCP, sTDA/sTD-DF 
  Waldemar Hujo          : DFT-NL                                        
  H. Jonsson             : NEB                                           
  Holger Kruse           : gCP                                           
  Marcel Mueller         : wB97X-3c, vDZP basis set                      
  Hagen Neugebauer       : wr2SCAN                                       
  Tobias Risthaus        : range-separated hybrid DFT                    
  Lukas Wittmann         : regularized MP2, r2SCAN double-hybrids, wr2SCAN        
                                                                         
We gratefully acknowledge several colleagues who have allowed us to      
interface, adapt or use parts of their codes:                            
  Ed Valeev, F. Pavosevic, A. Kumar             : LibInt (2-el integral package), F12 methods 
  Garnet Chan, S. Sharma, J. Yang, R. Olivares  : DMRG                   
  Ulf Ekstrom                                   : XCFun DFT Library      
  Mihaly Kallay                                 : mrcc  (arbitrary order and MRCC methods)
  Frank Weinhold                                : gennbo (NPA and NBO analysis)           
  Simon Mueller                                 : openCOSMO-RS                            
  Christopher J. Cramer and Donald G. Truhlar   : smd solvation model                     
  S Lehtola, MJT Oliveira, MAL Marques          : LibXC Library                           
  Liviu Ungur et al                             : ANISO software                          


 Your calculation uses the libint2 library for the computation of 2-el integrals
 For citations please refer to: http://libint.valeyev.net

 Your ORCA version has been built with support for libXC version: 6.2.2
 For citations please refer to: https://libxc.gitlab.io

 This ORCA versions uses:
   CBLAS   interface :  Fast vector & matrix operations
   LAPACKE interface :  Fast linear algebra routines
   SCALAPACK package :  Parallel linear algebra routines
   Shared memory     :  Shared parallel matrices
   BLAS/LAPACK       :  OpenBLAS 0.3.27  USE64BITINT DYNAMIC_ARCH NO_AFFINITY Cooperlake SINGLE_THREADED
        Core in use  :  Cooperlake
   Copyright (c) 2011-2014, The OpenBLAS Project




***************************************
The coordinates will be read from file: /temp180/bsavoie2/emille35/mlip_alchemy/sn1_scans/ch3cl/uwb97mv-tzvpd/orca.allxyz
***************************************


****
**** There are 64 structures found in the file
****
Your calculation utilizes the DFT-NL dispersion correction.
Cite in your paper:
Vydrov, O. A.; Van Voorhis, T. J. Chem. Phys. 2010, 133, 244103
Hujo, W.; Grimme, S. J. Chem. Theory Comput. 2011, 7, 3866 
   

Warning: RI is on but no J-basis has been assigned. Assigning Def2/J (nothing to worry about!)
================================================================================

----- Orbital basis set information -----
Your calculation utilizes the basis: def2-TZVPD
   F. Weigend and R. Ahlrichs, Phys. Chem. Chem. Phys. 7, 3297 (2005).
   D. Rappoport and F. Furche, J. Chem. Phys. 133, 134105 (2010)
   D. Rappoport, J. Chem. Phys. 155, 124102 (2021).

----- AuxJ basis set information -----
Your calculation utilizes the auxiliary basis: def2/J
   F. Weigend, Phys. Chem. Chem. Phys. 8, 1057 (2006).

================================================================================
                                        WARNINGS
                       Please study these warnings very carefully!
================================================================================


WARNING: B97M-V or wB97M-V functional requested.
  ===> : libXC variant has now been activated.
         Any manually given DFX/HFX/RangeSep scaling parameters are IGNORED!


================================================================================
                                       INPUT FILE
================================================================================
NAME = orca.inp
|  1> ! UKS wB97M-V def2-TZVPD PAL2
|  2> 
|  3> * xyzfile -2 1 /temp180/bsavoie2/emille35/mlip_alchemy/sn1_scans/ch3cl/uwb97mv-tzvpd/orca.allxyz
|  4> 
|  5>                          ****END OF INPUT****
================================================================================

                      *********************************
                      * Multiple XYZ Scan Calculation *
                      *********************************

Multiple XYZ scan settings:
    -> SCF surface will be mapped

There are 64 structures to be calculated

         *************************************************************
                               MULTIPLE XYZ STEP   1
         *************************************************************
---------------------------------
CARTESIAN COORDINATES (ANGSTROEM)
---------------------------------
  C     -0.011361    0.000097   -0.000042
  Cl     6.988639   -0.000284   -0.000127
  H     -0.005870    0.127880   -1.069946
  H     -0.016667    0.862758    0.645612
  H     -0.009881   -0.990371    0.424263

----------------------------
CARTESIAN COORDINATES (A.U.)
----------------------------
  NO LB      ZA    FRAG     MASS         X           Y           Z
   0 C     6.0000    0    12.011   -0.021469    0.000183   -0.000079
   1 Cl   17.0000    0    35.453   13.206614   -0.000537   -0.000240
   2 H     1.0000    0     1.008   -0.011093    0.241658   -2.021905
   3 H     1.0000    0     1.008   -0.031496    1.630376    1.220030
   4 H     1.0000    0     1.008   -0.018672   -1.871530    0.801741

--------------------------------
INTERNAL COORDINATES (ANGSTROEM)
--------------------------------
 C      0   0   0     0.000000000000     0.00000000     0.00000000
 Cl     1   0   0     7.000000010885     0.00000000     0.00000000
 H      1   2   0     1.077521793462    89.70770116     0.00000000
 H      1   2   3     1.077534798637    90.28505076   239.99799543
 H      1   2   3     1.077526696861    89.91871071   120.00055589

---------------------------
INTERNAL COORDINATES (A.U.)
---------------------------
 C      0   0   0     0.000000000000     0.00000000     0.00000000
 Cl     1   0   0    13.228082958018     0.00000000     0.00000000
 H      1   2   0     2.036221092975    89.70770116     0.00000000
 H      1   2   3     2.036245669193    90.28505076   239.99799543
 H      1   2   3     2.036230359057    89.91871071   120.00055589

---------------------
BASIS SET INFORMATION
---------------------
There are 3 groups of distinct atoms

 Group   1 Type C   : 12s6p3d1f contracted to 6s3p3d1f pattern {621111/411/111/1}
 Group   2 Type Cl  : 15s10p4d1f contracted to 6s6p3d1f pattern {732111/511111/211/1}
 Group   3 Type H   : 5s2p contracted to 3s2p pattern {311/11}

Atom   0C    basis set group =>   1
Atom   1Cl   basis set group =>   2
Atom   2H    basis set group =>   3
Atom   3H    basis set group =>   3
Atom   4H    basis set group =>   3
---------------------------------
AUXILIARY/J BASIS SET INFORMATION
---------------------------------
There are 3 groups of distinct atoms

 Group   1 Type C   : 12s5p4d2f1g contracted to 6s4p3d1f1g pattern {711111/2111/211/2/1}
 Group   2 Type Cl  : 14s5p5d2f1g contracted to 8s4p3d1f1g pattern {71111111/2111/311/2/1}
 Group   3 Type H   : 5s2p1d contracted to 3s1p1d pattern {311/2/1}

Atom   0C    basis set group =>   1
Atom   1Cl   basis set group =>   2
Atom   2H    basis set group =>   3
Atom   3H    basis set group =>   3
Atom   4H    basis set group =>   3


           ************************************************************
           *        Program running with 2 parallel MPI-processes     *
           *              working on a common directory               *
           ************************************************************
------------------------------------------------------------------------------
                             ORCA STARTUP CALCULATIONS
                           -- RI-GTO INTEGRALS CHOSEN --
------------------------------------------------------------------------------
------------------------------------------------------------------------------
                   ___                                                        
                  /   \      - P O W E R E D   B Y -                         
                 /     \                                                     
                 |  |  |   _    _      __       _____    __    __             
                 |  |  |  | |  | |    /  \     |  _  \  |  |  /  |          
                  \  \/   | |  | |   /    \    | | | |  |  | /  /          
                 / \  \   | |__| |  /  /\  \   | |_| |  |  |/  /          
                |  |  |   |  __  | /  /__\  \  |    /   |      \           
                |  |  |   | |  | | |   __   |  |    \   |  |\   \          
                \     /   | |  | | |  |  |  |  | |\  \  |  | \   \       
                 \___/    |_|  |_| |__|  |__|  |_| \__\ |__|  \__/        
                                                                              
                      - O R C A' S   B I G   F R I E N D -                    
                                      &                                       
                       - I N T E G R A L  F E E D E R -                       
                                                                              
 v1 FN, 2020, v2 2021, v3 2022-2024                                           
------------------------------------------------------------------------------


----------------------
SHARK INTEGRAL PACKAGE
----------------------

Number of atoms                             ...      5
Number of basis functions                   ...    110
Number of shells                            ...     44
Maximum angular momentum                    ...      3
Integral batch strategy                     ... SHARK/LIBINT Hybrid
RI-J (if used) integral strategy            ... SPLIT-RIJ (Revised 2003 algorithm where possible)
Printlevel                                  ...      1
Contraction scheme used                     ... SEGMENTED contraction
Prescreening option                         ... SCHWARTZ
   Thresh                                   ... 1.000e-10
   Tcut                                     ... 1.000e-11
   Tpresel                                  ... 1.000e-11 
Coulomb Range Separation                    ... NOT USED
Exchange Range Separation                   ... Long Range
   Mu parameter                             ... 3.000e-01
   Scaling (regular/separated)              ... 1.500e-01 8.500e-01
Multipole approximations                    ... NOT USED
Finite Nucleus Model                        ... NOT USED
CABS basis                                  ... NOT available
Auxiliary Coulomb fitting basis             ... AVAILABLE
   # of basis functions in Aux-J            ...    133
   # of shells in Aux-J                     ...     47
   Maximum angular momentum in Aux-J        ...      4
Auxiliary J/K fitting basis                 ... NOT available
Auxiliary Correlation fitting basis         ... NOT available
Auxiliary 'external' fitting basis          ... NOT available

Checking pre-screening integrals            ... done (  2.1 sec) Dimension = 44
Check shell pair data                       ... done (  0.9 sec)
Shell pair information
Shell pair cut-off parameter TPreSel        ...   1.0e-11
Total number of shell pairs                 ...       990
Shell pairs after pre-screening             ...       791
Total number of primitive shell pairs       ...      2768
Primitive shell pairs kept                  ...      1889
          la=0 lb=0:    186 shell pairs
          la=1 lb=0:    255 shell pairs
          la=1 lb=1:    101 shell pairs
          la=2 lb=0:     98 shell pairs
          la=2 lb=1:     74 shell pairs
          la=2 lb=2:     18 shell pairs
          la=3 lb=0:     28 shell pairs
          la=3 lb=1:     21 shell pairs
          la=3 lb=2:      8 shell pairs
          la=3 lb=3:      2 shell pairs

Calculating one electron integrals          ... done (  0.0 sec)
Calculating RI/J V-Matrix + Cholesky decomp.... done (  0.0 sec)
Calculating Nuclear repulsion               ... done (  0.0 sec) ENN=     21.212188722744 Eh

Diagonalization of the overlap matrix:
Smallest eigenvalue                        ... 6.598e-05
Time for diagonalization                   ...    0.001 sec
Threshold for overlap eigenvalues          ... 1.000e-07
Number of eigenvalues below threshold      ... 0
Time for construction of square roots      ...    0.008 sec
Total time needed                          ...    1.265 sec

-------------------
DFT GRID GENERATION
-------------------

General Integration Accuracy     IntAcc      ... 4.388
Radial Grid Type                 RadialGrid  ... OptM3 with GC (2021)
Angular Grid (max. ang.)         AngularGrid ... 4 (Lebedev-302)
Angular grid pruning method      GridPruning ... 4 (adaptive)
Weight generation scheme         WeightScheme... mBecke (2022)
Basis function cutoff            BFCut       ... 1.0000e-10
Integration weight cutoff        WCut        ... 1.0000e-14
Partially contracted basis set               ... off
Rotationally invariant grid construction     ... off
Angular grids for H and He will be reduced by one unit
Diffuse basis detected: some atoms will have their outermost
                        angular grid increased by 1.

Total number of grid points                  ...    24728
Total number of batches                      ...      388
Average number of points per batch           ...       63
Average number of grid points per atom       ...     4946

--------------------
COSX GRID GENERATION
--------------------

GRIDX 1
-------
General Integration Accuracy     IntAcc      ... 3.816
Radial Grid Type                 RadialGrid  ... OptM3 with GC (2021)
Angular Grid (max. ang.)         AngularGrid ... 1 (Lebedev-50)
Angular grid pruning method      GridPruning ... 4 (adaptive)
Weight generation scheme         WeightScheme... mBecke (2022)
Basis function cutoff            BFCut       ... 1.0000e-10
Integration weight cutoff        WCut        ... 1.0000e-14
Partially contracted basis set               ... on
Rotationally invariant grid construction     ... off
Angular grids for H and He will be reduced by one unit
Diffuse basis detected: some atoms will have their outermost
                        angular grid increased by 1.

Total number of grid points                  ...     4363
Total number of batches                      ...       37
Average number of points per batch           ...      117
Average number of grid points per atom       ...      873
UseSFitting                                  ... on

GRIDX 2
-------
General Integration Accuracy     IntAcc      ... 4.020
Radial Grid Type                 RadialGrid  ... OptM3 with GC (2021)
Angular Grid (max. ang.)         AngularGrid ... 2 (Lebedev-110)
Angular grid pruning method      GridPruning ... 4 (adaptive)
Weight generation scheme         WeightScheme... mBecke (2022)
Basis function cutoff            BFCut       ... 1.0000e-10
Integration weight cutoff        WCut        ... 1.0000e-14
Partially contracted basis set               ... on
Rotationally invariant grid construction     ... off
Angular grids for H and He will be reduced by one unit
Diffuse basis detected: some atoms will have their outermost
                        angular grid increased by 1.

Total number of grid points                  ...     7258
Total number of batches                      ...       60
Average number of points per batch           ...      120
Average number of grid points per atom       ...     1452
UseSFitting                                  ... on

GRIDX 3
-------
General Integration Accuracy     IntAcc      ... 4.338
Radial Grid Type                 RadialGrid  ... OptM3 with GC (2021)
Angular Grid (max. ang.)         AngularGrid ... 3 (Lebedev-194)
Angular grid pruning method      GridPruning ... 4 (adaptive)
Weight generation scheme         WeightScheme... mBecke (2022)
Basis function cutoff            BFCut       ... 1.0000e-10
Integration weight cutoff        WCut        ... 1.0000e-14
Partially contracted basis set               ... on
Rotationally invariant grid construction     ... off
Angular grids for H and He will be reduced by one unit
Diffuse basis detected: some atoms will have their outermost
                        angular grid increased by 1.

Total number of grid points                  ...    17322
Total number of batches                      ...      140
Average number of points per batch           ...      123
Average number of grid points per atom       ...     3464
UseSFitting                                  ... on
Initializing property integral containers    ... done (  1.4 sec)

SHARK setup successfully completed in  10.8 seconds

Maximum memory used throughout the entire STARTUP-calculation: 15.2 MB


           ************************************************************
           *        Program running with 2 parallel MPI-processes     *
           *              working on a common directory               *
           ************************************************************
-------------------------------------------------------------------------------
                                 ORCA GUESS
                   Start orbitals & Density for SCF / CASSCF
-------------------------------------------------------------------------------

------------
SCF SETTINGS
------------
Hamiltonian:
 Density Functional     Method          .... DFT(GTOs)
  Functional kind                       .... Exchange-Correlation
  Functional name                       .... wB97M-V exchange-correlation functional
  Functional family                     .... Hybrid MGGA
  Functional refs                              
    [ 0] N. Mardirossian and M. Head-Gordon.,  J. Chem. Phys. 144, 214110 (2016), doi: 10.1063/1.4952647
  Fraction of HF Exchange (short range) .... 0.1500
  Fraction of HF Exchange (long range)  .... 1.0000
  Range separation parameter mu         .... 0.3000
  Functional external parameters        .... 17
    Parameter  0 _cx00      =  8.500000e-01 : u^00 coefficient for exchange
    Parameter  1 _cx01      =  1.007000e+00 : u^01 coefficient for exchange
    Parameter  2 _cx10      =  2.590000e-01 : u^10 coefficient for exchange
    Parameter  3 _css00     =  4.430000e-01 : u^00 coefficient for same-spin correlation
    Parameter  4 _css04     = -1.437000e+00 : u^04 coefficient for same-spin correlation
    Parameter  5 _css10     = -4.535000e+00 : u^10 coefficient for same-spin correlation
    Parameter  6 _css20     = -3.390000e+00 : u^20 coefficient for same-spin correlation
    Parameter  7 _css43     =  4.278000e+00 : u^43 coefficient for same-spin correlation
    Parameter  8 _cos00     =  1.000000e+00 : u^00 coefficient for opposite-spin correlation
    Parameter  9 _cos10     =  1.358000e+00 : u^10 coefficient for opposite-spin correlation
    Parameter 10 _cos20     =  2.924000e+00 : u^20 coefficient for opposite-spin correlation
    Parameter 11 _cos21     = -8.812000e+00 : u^21 coefficient for opposite-spin correlation
    Parameter 12 _cos60     = -1.390000e+00 : u^60 coefficient for opposite-spin correlation
    Parameter 13 _cos61     =  9.142000e+00 : u^61 coefficient for opposite-spin correlation
    Parameter 14 _alpha     =  1.000000e+00 : fraction of HF exchange
    Parameter 15 _beta      = -8.500000e-01 : fraction of short-range exchange
    Parameter 16 _omega     =  3.000000e-01 : range-separation constant
 Long-range corrected/Screened/Range-Separated Hybrid DFT is turned on
   Amount of maximum screened exact exchange              ....  0.850000
   Range separation parameter mu (erf(mu*r12)/r12)        ....  0.300000
   NL short-range parameter             ....  6.000000
   NL long-range parameter              ....  0.010000
 RI-approximation to the Coulomb term is turned on
   Number of AuxJ basis functions       .... 133
   RIJ-COSX (HFX calculated with COS-X)).... on


General Settings:
 Integral files         IntName         .... orca
 Hartree-Fock type      HFTyp           .... UHF
 Total Charge           Charge          ....   -2
 Multiplicity           Mult            ....    1
 Number of Electrons    NEL             ....   28
 Basis Dimension        Dim             ....  110
 Nuclear Repulsion      ENuc            ....     21.2121887227 Eh

Convergence Acceleration:
 AO-DIIS                CNVDIIS         .... on
   Start iteration      DIISMaxIt       ....    12
   Startup error        DIISStart       ....  0.200000
   # of expansion vecs  DIISMaxEq       ....     5
   Bias factor          DIISBfac        ....   1.050
   Max. coefficient     DIISMaxC        ....  10.000
 MO-DIIS                CNVKDIIS        .... off
 Trust-Rad. Augm. Hess. CNVTRAH         .... auto
   Auto Start mean grad. ratio tolernc. ....  1.125000
   Auto Start start iteration           ....    50
   Auto Start num. interpolation iter.  ....    10
   Max. Number of Micro iterations      ....    24
   Max. Number of Macro iterations      .... Maxiter - #DIIS iter
   Number of Davidson start vectors     ....     2
   Converg. threshold    (grad. norm)   ....   5.000e-05
   Grad. Scal. Fac. for Micro threshold ....   0.100
   Minimum threshold for Micro iter.    ....   1.000e-02
   NR start threshold (gradient norm)   ....   1.000e-04
   Initial trust radius                 ....   0.400
   Minimum AH scaling param. (alpha)    ....   1.000
   Maximum AH scaling param. (alpha)    .... 1000.000
   Quad. conv. algorithm                .... NR
   White noise on init. David. guess    .... on
   Maximum white noise                  ....   0.010
   Pseudo random numbers                .... off
   Inactive MOs                         .... canonical
   Orbital update algorithm             .... Taylor
   Preconditioner                       .... Diag
   Full preconditioner red. dimension   ....   250
 SOSCF                  CNVSOSCF        .... on
   Start iteration      SOSCFMaxIt      ....   150
   Startup grad/error   SOSCFStart      ....  0.003300
   Hessian update       SOSCFHessUp     .... L-BFGS
 Level Shifting         CNVShift        .... on
   Level shift para.    LevelShift      ....    0.2500
   Turn off err/grad.   ShiftErr        ....    0.0010
 Zerner damping         CNVZerner       .... off
 Static damping         CNVDamp         .... on
   Fraction old density DampFac         ....    0.7000
   Max. Damping (<1)    DampMax         ....    0.9800
   Min. Damping (>=0)   DampMin         ....    0.0000
   Turn off err/grad.   DampErr         ....    0.1000

SCF Procedure:
 Maximum # iterations   MaxIter         ....   125
 SCF integral mode      SCFMode         .... Direct
   Integral package                     .... SHARK and LIBINT hybrid scheme
 Reset frequency        DirectResetFreq ....    20
 Integral Threshold     Thresh          ....  1.000e-10 Eh
 Primitive CutOff       TCut            ....  1.000e-11 Eh

Convergence Tolerance:
 Convergence Check Mode ConvCheckMode   .... Total+1el-Energy
 Convergence forced     ConvForced      .... 0
 Energy Change          TolE            ....  1.000e-06 Eh
 1-El. energy change                    ....  1.000e-03 Eh
 Orbital Gradient       TolG            ....  5.000e-05
 Orbital Rotation angle TolX            ....  5.000e-05
 DIIS Error             TolErr          ....  1.000e-06

------------------------------
INITIAL GUESS: MODEL POTENTIAL
------------------------------
Loading Hartree-Fock densities                     ... done
Calculating cut-offs                               ... done
Initializing the effective Hamiltonian             ... done
Setting up the integral package (SHARK)            ... done
Starting the Coulomb interaction                   ... done (   1.9 sec)
Making the grid                                    ... done (   0.0 sec)
Mapping shells                                     ... done
Starting the XC term evaluation                    ... done (   0.0 sec)
  promolecular density results
     # of electrons  =     25.998587792
     EX              =    -33.266268071
     EC              =     -0.908344735
     EX+EC           =    -34.174612806
Transforming the Hamiltonian                       ... done (   0.4 sec)
Diagonalizing the Hamiltonian                      ... done (   0.0 sec)
Back transforming the eigenvectors                 ... done (   2.2 sec)
Now organizing SCF variables                       ... done
                      ------------------
                      INITIAL GUESS DONE (  13.0 sec)
                      ------------------
             **** ENERGY FILE WAS UPDATED (orca.en.tmp) ****
Finished Guess after  22.5 sec
Maximum memory used throughout the entire GUESS-calculation: 8.3 MB


           ************************************************************
           *        Program running with 2 parallel MPI-processes     *
           *              working on a common directory               *
           ************************************************************

-------------------------------------------------------------------------------------------
                                      ORCA LEAN-SCF
                              memory conserving SCF solver
-------------------------------------------------------------------------------------------

----------------------------------------D-I-I-S--------------------------------------------
Iteration    Energy (Eh)           Delta-E    RMSDP     MaxDP     DIISErr   Damp  Time(sec)
-------------------------------------------------------------------------------------------
               ***  Starting incremental Fock matrix formation  ***
    1    -499.7838466735508973     0.00e+00  1.86e-03  4.17e-02  2.19e-01  0.700  56.7
Warning: op=0 Small HOMO/LUMO gap (   0.086) - skipping pre-diagonalization
         Will do a full diagonalization
    2    -499.9167282105175900    -1.33e-01  2.19e-03  8.71e-02  1.28e-01  0.700  62.3
                               ***Turning on AO-DIIS***
    3    -499.9833495522437943    -6.66e-02  1.22e-03  4.51e-02  5.78e-02  0.700  50.6
    4    -500.0217887848829150    -3.84e-02  2.56e-03  8.83e-02  3.32e-02  0.000  50.5
    5    -500.1046042570236523    -8.28e-02  6.07e-04  1.67e-02  7.76e-03  0.000  55.5
                              *** Initializing SOSCF ***
---------------------------------------S-O-S-C-F--------------------------------------
Iteration    Energy (Eh)           Delta-E    RMSDP     MaxDP     MaxGrad    Time(sec)
--------------------------------------------------------------------------------------
    6    -500.1051670559355671    -5.63e-04  3.26e-04  1.40e-02  2.92e-03    56.1
               *** Restarting incremental Fock matrix formation ***
    7    -500.1052692183926638    -1.02e-04  4.94e-04  1.91e-02  1.94e-03    49.0
    8    -500.1053501236897318    -8.09e-05  1.36e-03  5.37e-02  1.48e-03    46.5
    9    -500.1054418857074779    -9.18e-05  3.69e-04  1.83e-02  7.66e-04    53.5
   10    -500.1054512829927035    -9.40e-06  3.75e-04  1.92e-02  2.40e-04    46.9
   11    -500.1054544675334910    -3.18e-06  8.39e-05  4.32e-03  1.02e-04    53.4
   12    -500.1054547437021256    -2.76e-07  3.94e-05  2.12e-03  2.06e-05    49.2
                 **** Energy Check signals convergence ****

               *****************************************************
               *                     SUCCESS                       *
               *           SCF CONVERGED AFTER  12 CYCLES          *
               *****************************************************


------------------
NL GRID GENERATION
------------------

General Integration Accuracy     IntAcc      ... 4.004
Radial Grid Type                 RadialGrid  ... OptM3 with GC (2021)
Angular Grid (max. ang.)         AngularGrid ... 2 (Lebedev-110)
Angular grid pruning method      GridPruning ... 4 (adaptive)
Weight generation scheme         WeightScheme... mBecke (2022)
Basis function cutoff            BFCut       ... 1.0000e-10
Integration weight cutoff        WCut        ... 1.0000e-14
Partially contracted basis set               ... off
Rotationally invariant grid construction     ... off
Angular grids for H and He will be reduced by one unit
Diffuse basis detected: some atoms will have their outermost
                        angular grid increased by 1.

Total number of grid points                  ...     8465
Total number of batches                      ...      134
Average number of points per batch           ...       63
Average number of grid points per atom       ...     1693
Final grid set up in    0.0 sec

-------------------------------------------------------------------------------
                    post-SCF DFT-NL dispersion correction                      
-------------------------------------------------------------------------------

SCF Energy:     -500.105454744 
NL    Energy:      0.116210869 
SC+NL Energy:   -499.989243874 
NL done in  :              1.4 sec
-------------------------------------------------------------------------------
Recomputing exchange energy using gridx3       ... done (    4.016 sec)
Old exchange energy                            :     -8.816241749 Eh
New exchange energy                            :     -8.816242836 Eh
Exchange energy change after final integration :     -0.000001087 Eh
Total energy after final integration           :   -499.989244961 Eh
             **** ENERGY FILE WAS UPDATED (orca.en.tmp) ****

----------------
TOTAL SCF ENERGY
----------------

Total Energy       :       -499.98924496105792 Eh          -13605.39904 eV

Components:
Nuclear Repulsion  :         21.21218872274415 Eh             577.21300 eV
Electronic Energy  :       -521.31764346644627 Eh          -14185.77427 eV
One Electron Energy:       -740.37467845117567 Eh          -20146.61923 eV
Two Electron Energy:        219.05703498472946 Eh            5960.84497 eV

Virial components:
Potential Energy   :       -999.23579974875611 Eh          -27190.58845 eV
Kinetic Energy     :        499.24655478769819 Eh           13585.18941 eV
Virial Ratio       :          2.00148762203011

DFT components:
N(Alpha)           :       14.000064573636 electrons
N(Beta)            :       14.000064573636 electrons
N(Total)           :       28.000129147272 electrons
NL Energy, E(C,NL) :        0.116210869411 Eh       
E(XC)              :      -26.251488148786 Eh       

---------------
SCF CONVERGENCE
---------------

  Last Energy change         ...    2.7617e-07  Tolerance :   1.0000e-06
  Last MAX-Density change    ...    2.1216e-03  Tolerance :   1.0000e-05
  Last RMS-Density change    ...    3.9446e-05  Tolerance :   1.0000e-06
  Last DIIS Error            ...    2.9237e-03  Tolerance :   1.0000e-06
  Last Orbital Gradient      ...    2.0574e-05  Tolerance :   5.0000e-05
  Last Orbital Rotation      ...    7.5313e-05  Tolerance :   5.0000e-05


----------------------
UHF SPIN CONTAMINATION
----------------------

Warning: in a DFT calculation there is little theoretical justification to 
         calculate <S**2> as in Hartree-Fock theory. We will do it anyways
         but you should keep in mind that the values have only limited relevance

Expectation value of <S**2>     :     0.000000
Ideal value S*(S+1) for S=0.0   :     0.000000
Deviation                       :     0.000000

----------------
ORBITAL ENERGIES
----------------
                 SPIN UP ORBITALS
  NO   OCC          E(Eh)            E(eV) 
   0   1.0000    -101.478898     -2761.3812 
   1   1.0000      -9.954794      -270.8837 
   2   1.0000      -9.250217      -251.7112 
   3   1.0000      -6.949493      -189.1053 
   4   1.0000      -6.949493      -189.1053 
   5   1.0000      -6.949431      -189.1036 
   6   1.0000      -0.527865       -14.3639 
   7   1.0000      -0.414913       -11.2903 
   8   1.0000      -0.155723        -4.2374 
   9   1.0000      -0.155712        -4.2371 
  10   1.0000      -0.051241        -1.3943 
  11   1.0000      -0.051241        -1.3943 
  12   1.0000      -0.050272        -1.3680 
  13   1.0000       0.084734         2.3057 
  14   0.0000       0.292542         7.9605 
  15   0.0000       0.305756         8.3200 
  16   0.0000       0.305758         8.3201 
  17   0.0000       0.320337         8.7168 
  18   0.0000       0.376455        10.2438 
  19   0.0000       0.376575        10.2471 
  20   0.0000       0.392118        10.6701 
  21   0.0000       0.435351        11.8465 
  22   0.0000       0.442600        12.0438 
  23   0.0000       0.442697        12.0464 
  24   0.0000       0.511458        13.9175 

                 SPIN DOWN ORBITALS
  NO   OCC          E(Eh)            E(eV) 
   0   1.0000    -101.478898     -2761.3812 
   1   1.0000      -9.954794      -270.8837 
   2   1.0000      -9.250217      -251.7112 
   3   1.0000      -6.949493      -189.1053 
   4   1.0000      -6.949493      -189.1053 
   5   1.0000      -6.949431      -189.1036 
   6   1.0000      -0.527865       -14.3639 
   7   1.0000      -0.414913       -11.2903 
   8   1.0000      -0.155723        -4.2374 
   9   1.0000      -0.155712        -4.2371 
  10   1.0000      -0.051241        -1.3943 
  11   1.0000      -0.051241        -1.3943 
  12   1.0000      -0.050272        -1.3680 
  13   1.0000       0.084734         2.3057 
  14   0.0000       0.292542         7.9605 
  15   0.0000       0.305756         8.3200 
  16   0.0000       0.305758         8.3201 
  17   0.0000       0.320337         8.7168 
  18   0.0000       0.376455        10.2438 
  19   0.0000       0.376575        10.2471 
  20   0.0000       0.392118        10.6701 
  21   0.0000       0.435351        11.8465 
  22   0.0000       0.442600        12.0438 
  23   0.0000       0.442697        12.0464 
  24   0.0000       0.511458        13.9175 
*Only the first 10 virtual orbitals were printed.

                    ********************************
                    * MULLIKEN POPULATION ANALYSIS *
                    ********************************

--------------------------------------------
MULLIKEN ATOMIC CHARGES AND SPIN POPULATIONS
--------------------------------------------
   0 C :   -0.654089   -0.000000
   1 Cl:   -1.006187   -0.000000
   2 H :   -0.113306    0.000000
   3 H :   -0.113878   -0.000000
   4 H :   -0.112540    0.000000
Sum of atomic charges         :   -2.0000000
Sum of atomic spin populations:   -0.0000000

-----------------------------------------------------
MULLIKEN REDUCED ORBITAL CHARGES AND SPIN POPULATIONS
-----------------------------------------------------
CHARGE
  0 C s       :     3.322325  s :     3.322325
      pz      :     1.075037  p :     3.295229
      px      :     1.145034
      py      :     1.075158
      dz2     :     0.012093  d :     0.034045
      dxz     :     0.000008
      dyz     :     0.014420
      dx2y2   :     0.007511
      dxy     :     0.000014
      f0      :     0.000700  f :     0.002490
      f+1     :     0.000178
      f-1     :     0.000137
      f+2     :     0.000646
      f-2     :     0.000000
      f+3     :     0.000296
      f-3     :     0.000533

  1 Cls       :     6.000719  s :     6.000719
      pz      :     3.999842  p :    12.004823
      px      :     4.005138
      py      :     3.999842
      dz2     :     0.000078  d :     0.000645
      dxz     :     0.000166
      dyz     :     0.000000
      dx2y2   :     0.000235
      dxy     :     0.000166
      f0      :     0.000000  f :     0.000000
      f+1     :     0.000000
      f-1     :     0.000000
      f+2     :     0.000000
      f-2     :     0.000000
      f+3     :     0.000000
      f-3     :     0.000000

  2 H s       :     0.752722  s :     0.752722
      pz      :     0.049831  p :     0.360584
      px      :     0.277206
      py      :     0.033547

  3 H s       :     0.753126  s :     0.753126
      pz      :     0.039393  p :     0.360752
      px      :     0.277102
      py      :     0.044257

  4 H s       :     0.752634  s :     0.752634
      pz      :     0.035951  p :     0.359906
      px      :     0.276423
      py      :     0.047532


SPIN
  0 C s       :    -0.000000  s :    -0.000000
      pz      :     0.000000  p :     0.000000
      px      :     0.000000
      py      :     0.000000
      dz2     :     0.000000  d :     0.000000
      dxz     :    -0.000000
      dyz     :     0.000000
      dx2y2   :     0.000000
      dxy     :     0.000000
      f0      :     0.000000  f :     0.000000
      f+1     :    -0.000000
      f-1     :    -0.000000
      f+2     :     0.000000
      f-2     :     0.000000
      f+3     :     0.000000
      f-3     :    -0.000000

  1 Cls       :    -0.000000  s :    -0.000000
      pz      :    -0.000000  p :     0.000000
      px      :    -0.000000
      py      :     0.000000
      dz2     :    -0.000000  d :    -0.000000
      dxz     :     0.000000
      dyz     :    -0.000000
      dx2y2   :    -0.000000
      dxy     :    -0.000000
      f0      :     0.000000  f :    -0.000000
      f+1     :    -0.000000
      f-1     :    -0.000000
      f+2     :    -0.000000
      f-2     :    -0.000000
      f+3     :     0.000000
      f-3     :     0.000000

  2 H s       :     0.000000  s :     0.000000
      pz      :     0.000000  p :     0.000000
      px      :    -0.000000
      py      :     0.000000

  3 H s       :    -0.000000  s :    -0.000000
      pz      :    -0.000000  p :    -0.000000
      px      :    -0.000000
      py      :     0.000000

  4 H s       :     0.000000  s :     0.000000
      pz      :    -0.000000  p :     0.000000
      px      :    -0.000000
      py      :     0.000000



                     *******************************
                     * LOEWDIN POPULATION ANALYSIS *
                     *******************************

-------------------------------------------
LOEWDIN ATOMIC CHARGES AND SPIN POPULATIONS
-------------------------------------------
   0 C :   -0.279202    0.000000
   1 Cl:   -1.003447   -0.000000
   2 H :   -0.239092   -0.000000
   3 H :   -0.239239   -0.000000
   4 H :   -0.239020    0.000000

----------------------------------------------------
LOEWDIN REDUCED ORBITAL CHARGES AND SPIN POPULATIONS
----------------------------------------------------
CHARGE
  0 C s       :     2.908849  s :     2.908849
      pz      :     1.003677  p :     3.241406
      px      :     1.234081
      py      :     1.003648
      dz2     :     0.042800  d :     0.118979
      dxz     :     0.000023
      dyz     :     0.052291
      dx2y2   :     0.023829
      dxy     :     0.000036
      f0      :     0.003303  f :     0.009967
      f+1     :     0.000011
      f-1     :     0.000642
      f+2     :     0.003173
      f-2     :     0.000000
      f+3     :     0.000017
      f-3     :     0.002820

  1 Cls       :     6.000689  s :     6.000689
      pz      :     3.999836  p :    12.002128
      px      :     4.002457
      py      :     3.999836
      dz2     :     0.000074  d :     0.000630
      dxz     :     0.000166
      dyz     :     0.000000
      dx2y2   :     0.000223
      dxy     :     0.000166
      f0      :     0.000000  f :     0.000000
      f+1     :     0.000000
      f-1     :     0.000000
      f+2     :     0.000000
      f-2     :     0.000000
      f+3     :     0.000000
      f-3     :     0.000000

  2 H s       :     0.782502  s :     0.782502
      pz      :     0.129536  p :     0.456590
      px      :     0.247998
      py      :     0.079056

  3 H s       :     0.782542  s :     0.782542
      pz      :     0.096877  p :     0.456697
      px      :     0.248323
      py      :     0.111497

  4 H s       :     0.782515  s :     0.782515
      pz      :     0.086328  p :     0.456505
      px      :     0.247991
      py      :     0.122185


SPIN
  0 C s       :    -0.000000  s :    -0.000000
      pz      :     0.000000  p :     0.000000
      px      :     0.000000
      py      :     0.000000
      dz2     :    -0.000000  d :    -0.000000
      dxz     :    -0.000000
      dyz     :    -0.000000
      dx2y2   :    -0.000000
      dxy     :     0.000000
      f0      :    -0.000000  f :    -0.000000
      f+1     :    -0.000000
      f-1     :     0.000000
      f+2     :     0.000000
      f-2     :     0.000000
      f+3     :    -0.000000
      f-3     :    -0.000000

  1 Cls       :    -0.000000  s :    -0.000000
      pz      :    -0.000000  p :     0.000000
      px      :    -0.000000
      py      :     0.000000
      dz2     :    -0.000000  d :    -0.000000
      dxz     :     0.000000
      dyz     :    -0.000000
      dx2y2   :    -0.000000
      dxy     :    -0.000000
      f0      :     0.000000  f :    -0.000000
      f+1     :    -0.000000
      f-1     :    -0.000000
      f+2     :    -0.000000
      f-2     :    -0.000000
      f+3     :     0.000000
      f-3     :     0.000000

  2 H s       :    -0.000000  s :    -0.000000
      pz      :     0.000000  p :     0.000000
      px      :    -0.000000
      py      :     0.000000

  3 H s       :    -0.000000  s :    -0.000000
      pz      :    -0.000000  p :    -0.000000
      px      :    -0.000000
      py      :    -0.000000

  4 H s       :    -0.000000  s :    -0.000000
      pz      :    -0.000000  p :     0.000000
      px      :    -0.000000
      py      :     0.000000



                      *****************************
                      * MAYER POPULATION ANALYSIS *
                      *****************************

  NA   - Mulliken gross atomic population
  ZA   - Total nuclear charge
  QA   - Mulliken gross atomic charge
  VA   - Mayer's total valence
  BVA  - Mayer's bonded valence
  FA   - Mayer's free valence

  ATOM       NA         ZA         QA         VA         BVA        FA
  0 C      6.6541     6.0000    -0.6541     3.8479     3.8479    -0.0000
  1 Cl    18.0062    17.0000    -1.0062     0.0112     0.0112     0.0000
  2 H      1.1133     1.0000    -0.1133     1.5968     1.5968     0.0000
  3 H      1.1139     1.0000    -0.1139     1.5975     1.5975     0.0000
  4 H      1.1125     1.0000    -0.1125     1.5958     1.5958    -0.0000

  Mayer bond orders larger than 0.100000
B(  0-C ,  2-H ) :   1.2805 B(  0-C ,  3-H ) :   1.2810 B(  0-C ,  4-H ) :   1.2797 
B(  2-H ,  3-H ) :   0.1576 B(  2-H ,  4-H ) :   0.1572 B(  3-H ,  4-H ) :   0.1575 


-------
TIMINGS
-------

Total SCF time: 0 days 0 hours 11 min 11 sec 

Total time                  ....     671.456 sec
Sum of individual times     ....     644.971 sec  ( 96.1%)

SCF preparation             ....       5.014 sec  (  0.7%)
Fock matrix formation       ....     335.289 sec  ( 49.9%)
  Startup                   ....      91.568 sec  ( 27.3% of F)
  Split-RI-J                ....      80.180 sec  ( 23.9% of F)
  Chain of spheres X        ....      76.570 sec  ( 22.8% of F)
  XC integration            ....       5.352 sec  (  1.6% of F)
    Basis function eval.    ....       0.098 sec  (  1.8% of XC)
    Density eval.           ....       0.219 sec  (  4.1% of XC)
    XC-Functional eval.     ....       0.202 sec  (  3.8% of XC)
    XC-Potential eval.      ....       0.435 sec  (  8.1% of XC)
Diagonalization             ....       0.000 sec  (  0.0%)
Density matrix formation    ....     116.463 sec  ( 17.3%)
Total Energy calculation    ....      54.173 sec  (  8.1%)
Population analysis         ....      13.871 sec  (  2.1%)
Orbital Transformation      ....      16.556 sec  (  2.5%)
Orbital Orthonormalization  ....       0.000 sec  (  0.0%)
DIIS solution               ....      47.665 sec  (  7.1%)
SOSCF solution              ....      55.905 sec  (  8.3%)
Grid generation             ....       0.037 sec  (  0.0%)
Finished LeanSCF after 679.5 sec

Maximum memory used throughout the entire LEANSCF-calculation: 9.6 MB

-------------------------   --------------------
FINAL SINGLE POINT ENERGY      -499.989244961058
-------------------------   --------------------



           ************************************************************
           *        Program running with 2 parallel MPI-processes     *
           *              working on a common directory               *
           ************************************************************

------------------------------------------------------------------------------
                              ORCA PROPERTY CALCULATIONS
------------------------------------------------------------------------------

GBWName                                 ... orca.gbw
Number of atoms                         ...      5
Number of basis functions               ...    110
Max core memory                         ...   1024 MB

Electric properties:
Dipole moment                           ... YES
Quadrupole moment                       ...  NO
Static polarizability (Dipole/Dipole)   ...  NO
Static polarizability (Dipole/Quad.)    ...  NO
Static polarizability (Quad./Quad.)     ...  NO
Static polarizability (Velocity)        ...  NO

Atomic electric properties:
Dipole moment                           ...  NO
Quadrupole moment                       ...  NO
Static polarizability                   ...  NO

Choice of electric origin               ... Center of mass
Position of electric origin             ...     9.267439    -0.000323    -0.000190

General magnetic properties:
Magnetizability                         ...  NO

EPR properties:
g-Tensor (aka g-matrix)                 ...  NO
Zero-Field splitting spin-orbit         ...  NO
Zero-field splitting spin-spin          ...  NO
Hyperfine couplings                     ...  NO (   0 nuclei)
Quadrupole couplings                    ...  NO (   0 nuclei)
Contact density                         ...  NO (   0 nuclei)

NMR properties:
Chemical shifts                         ...  NO (   0 nuclei)
Spin-rotation constants                 ...  NO (   0 nuclei)
Spin-spin couplings                     ...  NO (   0 nuclei,    0 pairs)

Choice of magnetic origin               ... GIAO
Position of magnetic origin             ...     0.000000     0.000000     0.000000

Properties with geometric perturbations:
SCF Hessian                             ...  NO
IR spectrum                             ...  NO
VCD spectrum                            ...  NO
X-ray spectroscopy properties:
SCF XES/XAS/RIXS spectra                ...  NO


-------------
DIPOLE MOMENT
-------------

Method             : SCF
Type of density    : Electron Density
Multiplicity       :   1
Irrep              :   0
Energy             :  -499.9892449610579206 Eh
Relativity type    : 
Basis              : AO
                                X                 Y                 Z
Electronic contribution:     22.263163251      -0.000049525       0.001452901
Nuclear contribution   :    -16.631056223       0.000883476       0.000251950
                        -----------------------------------------
Total Dipole Moment    :      5.632107028       0.000833951       0.001704851
                        -----------------------------------------
Magnitude (a.u.)       :      5.632107348
Magnitude (Debye)      :     14.315679193



--------------------
Rotational spectrum 
--------------------
 
Rotational constants in cm-1:             4.801377             0.032477             0.032477 
Rotational constants in MHz :        143941.673722           973.634151           973.634038 

Dipole components along the rotational axes: 
x,y,z [a.u.] :     5.632107     0.001945     0.001077 
x,y,z [Debye]:    14.315678     0.004944     0.002736 

 

Dipole moment calculation done in   2.1 sec 

Maximum memory used throughout the entire PROP-calculation: 5.2 MB

         *************************************************************
                               MULTIPLE XYZ STEP   2
         *************************************************************
---------------------------------
CARTESIAN COORDINATES (ANGSTROEM)
---------------------------------
  C      0.009847    0.000108   -0.000013
  Cl     6.908284   -0.000317   -0.000202
  H      0.014151    0.127898   -1.069947
  H      0.002725    0.862784    0.645631
  H      0.009853   -0.990393    0.424291

----------------------------
CARTESIAN COORDINATES (A.U.)
----------------------------
  NO LB      ZA    FRAG     MASS         X           Y           Z
   0 C     6.0000    0    12.011    0.018608    0.000204   -0.000025
   1 Cl   17.0000    0    35.453   13.054765   -0.000599   -0.000382
   2 H     1.0000    0     1.008    0.026742    0.241692   -2.021907
   3 H     1.0000    0     1.008    0.005150    1.630425    1.220066
   4 H     1.0000    0     1.008    0.018619   -1.871572    0.801794

--------------------------------
INTERNAL COORDINATES (ANGSTROEM)
--------------------------------
 C      0   0   0     0.000000000000     0.00000000     0.00000000
 Cl     1   0   0     6.898437015681     0.00000000     0.00000000
 H      1   2   0     1.077547016548    89.77000525     0.00000000
 H      1   2   3     1.077551288151    90.38246185   239.99907883
 H      1   2   3     1.077555620584    89.99705437   119.99999252

---------------------------
INTERNAL COORDINATES (A.U.)
---------------------------
 C      0   0   0     0.000000000000     0.00000000     0.00000000
 Cl     1   0   0    13.036156711742     0.00000000     0.00000000
 H      1   2   0     2.036268757700    89.77000525     0.00000000
 H      1   2   3     2.036276829860    90.38246185   239.99907883
 H      1   2   3     2.036285016972    89.99705437   119.99999252



           ************************************************************
           *        Program running with 2 parallel MPI-processes     *
           *              working on a common directory               *
           ************************************************************
------------------------------------------------------------------------------
                   ___                                                        
                  /   \      - P O W E R E D   B Y -                         
                 /     \                                                     
                 |  |  |   _    _      __       _____    __    __             
                 |  |  |  | |  | |    /  \     |  _  \  |  |  /  |          
                  \  \/   | |  | |   /    \    | | | |  |  | /  /          
                 / \  \   | |__| |  /  /\  \   | |_| |  |  |/  /          
                |  |  |   |  __  | /  /__\  \  |    /   |      \           
                |  |  |   | |  | | |   __   |  |    \   |  |\   \          
                \     /   | |  | | |  |  |  |  | |\  \  |  | \   \       
                 \___/    |_|  |_| |__|  |__|  |_| \__\ |__|  \__/        
                                                                              
                      - O R C A' S   B I G   F R I E N D -                    
                                      &                                       
                       - I N T E G R A L  F E E D E R -                       
                                                                              
 v1 FN, 2020, v2 2021, v3 2022-2024                                           
------------------------------------------------------------------------------


----------------------
SHARK INTEGRAL PACKAGE
----------------------

Number of atoms                             ...      5
Number of basis functions                   ...    110
Number of shells                            ...     44
Maximum angular momentum                    ...      3
Integral batch strategy                     ... SHARK/LIBINT Hybrid
RI-J (if used) integral strategy            ... SPLIT-RIJ (Revised 2003 algorithm where possible)
Printlevel                                  ...      1
Contraction scheme used                     ... SEGMENTED contraction
Prescreening option                         ... SCHWARTZ
   Thresh                                   ... 1.000e-10
   Tcut                                     ... 1.000e-11
   Tpresel                                  ... 1.000e-11 
Coulomb Range Separation                    ... NOT USED
Exchange Range Separation                   ... Long Range
   Mu parameter                             ... 3.000e-01
   Scaling (regular/separated)              ... 1.500e-01 8.500e-01
Multipole approximations                    ... NOT USED
Finite Nucleus Model                        ... NOT USED
CABS basis                                  ... NOT available
Auxiliary Coulomb fitting basis             ... AVAILABLE
   # of basis functions in Aux-J            ...    133
   # of shells in Aux-J                     ...     47
   Maximum angular momentum in Aux-J        ...      4
Auxiliary J/K fitting basis                 ... NOT available
Auxiliary Correlation fitting basis         ... NOT available
Auxiliary 'external' fitting basis          ... NOT available

Checking pre-screening integrals            ... done (  0.6 sec) Dimension = 44
Check shell pair data                       ... done (  0.5 sec)
Shell pair information
Shell pair cut-off parameter TPreSel        ...   1.0e-11
Total number of shell pairs                 ...       990
Shell pairs after pre-screening             ...       793
Total number of primitive shell pairs       ...      2768
Primitive shell pairs kept                  ...      1892
          la=0 lb=0:    186 shell pairs
          la=1 lb=0:    256 shell pairs
          la=1 lb=1:    101 shell pairs
          la=2 lb=0:     99 shell pairs
          la=2 lb=1:     74 shell pairs
          la=2 lb=2:     18 shell pairs
          la=3 lb=0:     28 shell pairs
          la=3 lb=1:     21 shell pairs
          la=3 lb=2:      8 shell pairs
          la=3 lb=3:      2 shell pairs

Calculating one electron integrals          ... done (  0.0 sec)
Calculating RI/J V-Matrix + Cholesky decomp.... done (  0.0 sec)
Calculating Nuclear repulsion               ... done (  0.0 sec) ENN=     21.379466472136 Eh

Diagonalization of the overlap matrix:
Smallest eigenvalue                        ... 6.587e-05
Time for diagonalization                   ...    0.001 sec
Threshold for overlap eigenvalues          ... 1.000e-07
Number of eigenvalues below threshold      ... 0
Time for construction of square roots      ...    0.014 sec
Total time needed                          ...    1.382 sec

-------------------
DFT GRID GENERATION
-------------------

General Integration Accuracy     IntAcc      ... 4.388
Radial Grid Type                 RadialGrid  ... OptM3 with GC (2021)
Angular Grid (max. ang.)         AngularGrid ... 4 (Lebedev-302)
Angular grid pruning method      GridPruning ... 4 (adaptive)
Weight generation scheme         WeightScheme... mBecke (2022)
Basis function cutoff            BFCut       ... 1.0000e-10
Integration weight cutoff        WCut        ... 1.0000e-14
Partially contracted basis set               ... off
Rotationally invariant grid construction     ... off
Angular grids for H and He will be reduced by one unit
Diffuse basis detected: some atoms will have their outermost
                        angular grid increased by 1.

Total number of grid points                  ...    24728
Total number of batches                      ...      389
Average number of points per batch           ...       63
Average number of grid points per atom       ...     4946

--------------------
COSX GRID GENERATION
--------------------

GRIDX 1
-------
General Integration Accuracy     IntAcc      ... 3.816
Radial Grid Type                 RadialGrid  ... OptM3 with GC (2021)
Angular Grid (max. ang.)         AngularGrid ... 1 (Lebedev-50)
Angular grid pruning method      GridPruning ... 4 (adaptive)
Weight generation scheme         WeightScheme... mBecke (2022)
Basis function cutoff            BFCut       ... 1.0000e-10
Integration weight cutoff        WCut        ... 1.0000e-14
Partially contracted basis set               ... on
Rotationally invariant grid construction     ... off
Angular grids for H and He will be reduced by one unit
Diffuse basis detected: some atoms will have their outermost
                        angular grid increased by 1.

Total number of grid points                  ...     4363
Total number of batches                      ...       37
Average number of points per batch           ...      117
Average number of grid points per atom       ...      873
UseSFitting                                  ... on

GRIDX 2
-------
General Integration Accuracy     IntAcc      ... 4.020
Radial Grid Type                 RadialGrid  ... OptM3 with GC (2021)
Angular Grid (max. ang.)         AngularGrid ... 2 (Lebedev-110)
Angular grid pruning method      GridPruning ... 4 (adaptive)
Weight generation scheme         WeightScheme... mBecke (2022)
Basis function cutoff            BFCut       ... 1.0000e-10
Integration weight cutoff        WCut        ... 1.0000e-14
Partially contracted basis set               ... on
Rotationally invariant grid construction     ... off
Angular grids for H and He will be reduced by one unit
Diffuse basis detected: some atoms will have their outermost
                        angular grid increased by 1.

Total number of grid points                  ...     7257
Total number of batches                      ...       60
Average number of points per batch           ...      120
Average number of grid points per atom       ...     1451
UseSFitting                                  ... on

GRIDX 3
-------
General Integration Accuracy     IntAcc      ... 4.338
Radial Grid Type                 RadialGrid  ... OptM3 with GC (2021)
Angular Grid (max. ang.)         AngularGrid ... 3 (Lebedev-194)
Angular grid pruning method      GridPruning ... 4 (adaptive)
Weight generation scheme         WeightScheme... mBecke (2022)
Basis function cutoff            BFCut       ... 1.0000e-10
Integration weight cutoff        WCut        ... 1.0000e-14
Partially contracted basis set               ... on
Rotationally invariant grid construction     ... off
Angular grids for H and He will be reduced by one unit
Diffuse basis detected: some atoms will have their outermost
                        angular grid increased by 1.

Total number of grid points                  ...    17322
Total number of batches                      ...      139
Average number of points per batch           ...      124
Average number of grid points per atom       ...     3464
UseSFitting                                  ... on
Initializing property integral containers    ... done (  1.7 sec)

SHARK setup successfully completed in   6.6 seconds

Maximum memory used throughout the entire STARTUP-calculation: 15.4 MB


           ************************************************************
           *        Program running with 2 parallel MPI-processes     *
           *              working on a common directory               *
           ************************************************************
             **** ENERGY FILE WAS UPDATED (orca.en.tmp) ****
Finished Guess after  25.7 sec
Maximum memory used throughout the entire GUESS-calculation: 8.5 MB


           ************************************************************
           *        Program running with 2 parallel MPI-processes     *
           *              working on a common directory               *
           ************************************************************
----------------------------------------D-I-I-S--------------------------------------------
Iteration    Energy (Eh)           Delta-E    RMSDP     MaxDP     DIISErr   Damp  Time(sec)
-------------------------------------------------------------------------------------------
               ***  Starting incremental Fock matrix formation  ***
                              *** Initializing SOSCF ***
---------------------------------------S-O-S-C-F--------------------------------------
Iteration    Energy (Eh)           Delta-E    RMSDP     MaxDP     MaxGrad    Time(sec)
--------------------------------------------------------------------------------------
    1    -500.1044599728866729     0.00e+00  2.01e-04  1.08e-02  1.97e-04    50.6
               *** Restarting incremental Fock matrix formation ***
    2    -500.1044632618007313    -3.29e-06  1.39e-04  7.47e-03  2.74e-04    47.6
    3    -500.1044648361913119    -1.57e-06  6.12e-05  3.05e-03  9.78e-05    49.6
    4    -500.1044651729922066    -3.37e-07  2.32e-05  1.06e-03  5.27e-05    52.9
                 **** Energy Check signals convergence ****

               *****************************************************
               *                     SUCCESS                       *
               *           SCF CONVERGED AFTER   4 CYCLES          *
               *****************************************************


------------------
NL GRID GENERATION
------------------

General Integration Accuracy     IntAcc      ... 4.004
Radial Grid Type                 RadialGrid  ... OptM3 with GC (2021)
Angular Grid (max. ang.)         AngularGrid ... 2 (Lebedev-110)
Angular grid pruning method      GridPruning ... 4 (adaptive)
Weight generation scheme         WeightScheme... mBecke (2022)
Basis function cutoff            BFCut       ... 1.0000e-10
Integration weight cutoff        WCut        ... 1.0000e-14
Partially contracted basis set               ... off
Rotationally invariant grid construction     ... off
Angular grids for H and He will be reduced by one unit
Diffuse basis detected: some atoms will have their outermost
                        angular grid increased by 1.

Total number of grid points                  ...     8465
Total number of batches                      ...      135
Average number of points per batch           ...       62
Average number of grid points per atom       ...     1693
Final grid set up in    5.5 sec

-------------------------------------------------------------------------------
                    post-SCF DFT-NL dispersion correction                      
-------------------------------------------------------------------------------

SCF Energy:     -500.104465173 
NL    Energy:      0.116204473 
SC+NL Energy:   -499.988260700 
NL done in  :              0.7 sec
-------------------------------------------------------------------------------
Recomputing exchange energy using gridx3       ... done (    2.064 sec)
Old exchange energy                            :     -8.816056004 Eh
New exchange energy                            :     -8.816058161 Eh
Exchange energy change after final integration :     -0.000002158 Eh
Total energy after final integration           :   -499.988262858 Eh
             **** ENERGY FILE WAS UPDATED (orca.en.tmp) ****

----------------
TOTAL SCF ENERGY
----------------

Total Energy       :       -499.98826285778500 Eh          -13605.37232 eV

Components:
Nuclear Repulsion  :         21.37946647213592 Eh             581.76486 eV
Electronic Energy  :       -521.48393164512811 Eh          -14190.29920 eV
One Electron Energy:       -740.73431873657910 Eh          -20156.40554 eV
Two Electron Energy:        219.25038709145102 Eh            5966.10634 eV

Virial components:
Potential Energy   :       -999.23425892834041 Eh          -27190.54653 eV
Kinetic Energy     :        499.24599607055541 Eh           13585.17421 eV
Virial Ratio       :          2.00148677564381

DFT components:
N(Alpha)           :       14.000097980638 electrons
N(Beta)            :       14.000097980638 electrons
N(Total)           :       28.000195961276 electrons
NL Energy, E(C,NL) :        0.116204472813 Eh       
E(XC)              :      -26.251372266032 Eh       

---------------
SCF CONVERGENCE
---------------

  Last Energy change         ...    3.3680e-07  Tolerance :   1.0000e-06
  Last MAX-Density change    ...    1.0603e-03  Tolerance :   1.0000e-05
  Last RMS-Density change    ...    2.3197e-05  Tolerance :   1.0000e-06
  Last DIIS Error            ...    3.3193e-04  Tolerance :   1.0000e-06
  Last Orbital Gradient      ...    5.2669e-05  Tolerance :   5.0000e-05
  Last Orbital Rotation      ...    3.1273e-04  Tolerance :   5.0000e-05


----------------------
UHF SPIN CONTAMINATION
----------------------

Warning: in a DFT calculation there is little theoretical justification to 
         calculate <S**2> as in Hartree-Fock theory. We will do it anyways
         but you should keep in mind that the values have only limited relevance

Expectation value of <S**2>     :     0.000000
Ideal value S*(S+1) for S=0.0   :     0.000000
Deviation                       :     0.000000

Total SCF time: 0 days 0 hours 3 min 56 sec 
Finished LeanSCF after 246.0 sec

Maximum memory used throughout the entire LEANSCF-calculation: 9.8 MB

-------------------------   --------------------
FINAL SINGLE POINT ENERGY      -499.988262857785
-------------------------   --------------------



           ************************************************************
           *        Program running with 2 parallel MPI-processes     *
           *              working on a common directory               *
           ************************************************************

------------------------------------------------------------------------------
                              ORCA PROPERTY CALCULATIONS
------------------------------------------------------------------------------

GBWName                                 ... orca.gbw
Number of atoms                         ...      5
Number of basis functions               ...    110
Max core memory                         ...   1024 MB

Electric properties:
Dipole moment                           ... YES
Quadrupole moment                       ...  NO
Static polarizability (Dipole/Dipole)   ...  NO
Static polarizability (Dipole/Quad.)    ...  NO
Static polarizability (Quad./Quad.)     ...  NO
Static polarizability (Velocity)        ...  NO

Atomic electric properties:
Dipole moment                           ...  NO
Quadrupole moment                       ...  NO
Static polarizability                   ...  NO

Choice of electric origin               ... Center of mass
Position of electric origin             ...     9.172576    -0.000361    -0.000275

General magnetic properties:
Magnetizability                         ...  NO

EPR properties:
g-Tensor (aka g-matrix)                 ...  NO
Zero-Field splitting spin-orbit         ...  NO
Zero-field splitting spin-spin          ...  NO
Hyperfine couplings                     ...  NO (   0 nuclei)
Quadrupole couplings                    ...  NO (   0 nuclei)
Contact density                         ...  NO (   0 nuclei)

NMR properties:
Chemical shifts                         ...  NO (   0 nuclei)
Spin-rotation constants                 ...  NO (   0 nuclei)
Spin-spin couplings                     ...  NO (   0 nuclei,    0 pairs)

Choice of magnetic origin               ... GIAO
Position of magnetic origin             ...     0.000000     0.000000     0.000000

Properties with geometric perturbations:
SCF Hessian                             ...  NO
IR spectrum                             ...  NO
VCD spectrum                            ...  NO
X-ray spectroscopy properties:
SCF XES/XAS/RIXS spectra                ...  NO


-------------
DIPOLE MOMENT
-------------

Method             : SCF
Type of density    : Electron Density
Multiplicity       :   1
Irrep              :   0
Energy             :  -499.9882628577850028 Eh
Relativity type    : 
Basis              : AO
                                X                 Y                 Z
Electronic contribution:     21.946391691      -0.000112546       0.001283306
Nuclear contribution   :    -16.393802888       0.000978027       0.000461802
                        -----------------------------------------
Total Dipole Moment    :      5.552588803       0.000865481       0.001745109
                        -----------------------------------------
Magnitude (a.u.)       :      5.552589144
Magnitude (Debye)      :     14.113559982



--------------------
Rotational spectrum 
--------------------
 
Rotational constants in cm-1:             4.801180             0.033434             0.033434 
Rotational constants in MHz :        143935.762543          1002.326869          1002.326783 

Dipole components along the rotational axes: 
x,y,z [a.u.] :    -5.552589    -0.000964    -0.002165 
x,y,z [Debye]:   -14.113559    -0.002451    -0.005503 

 

Dipole moment calculation done in   3.0 sec 

Maximum memory used throughout the entire PROP-calculation: 5.3 MB

         *************************************************************
                               MULTIPLE XYZ STEP   3
         *************************************************************
---------------------------------
CARTESIAN COORDINATES (ANGSTROEM)
---------------------------------
  C      0.030218    0.000116    0.000007
  Cl     6.827093   -0.000349   -0.000281
  H      0.034747    0.127908   -1.069927
  H      0.022669    0.862792    0.645649
  H      0.030133   -0.990387    0.424312

----------------------------
CARTESIAN COORDINATES (A.U.)
----------------------------
  NO LB      ZA    FRAG     MASS         X           Y           Z
   0 C     6.0000    0    12.011    0.057104    0.000219    0.000013
   1 Cl   17.0000    0    35.453   12.901336   -0.000660   -0.000531
   2 H     1.0000    0     1.008    0.065662    0.241711   -2.021869
   3 H     1.0000    0     1.008    0.042838    1.630441    1.220100
   4 H     1.0000    0     1.008    0.056943   -1.871560    0.801833

--------------------------------
INTERNAL COORDINATES (ANGSTROEM)
--------------------------------
 C      0   0   0     0.000000000000     0.00000000     0.00000000
 Cl     1   0   0     6.796875022008     0.00000000     0.00000000
 H      1   2   0     1.077548175935    89.75723592     0.00000000
 H      1   2   3     1.077552996628    90.40599256   239.99927528
 H      1   2   3     1.077557856108    90.00187244   120.00010768

---------------------------
INTERNAL COORDINATES (A.U.)
---------------------------
 C      0   0   0     0.000000000000     0.00000000     0.00000000
 Cl     1   0   0    12.844232358085     0.00000000     0.00000000
 H      1   2   0     2.036270948624    89.75723592     0.00000000
 H      1   2   3     2.036280058412    90.40599256   239.99927528
 H      1   2   3     2.036289241499    90.00187244   120.00010768



           ************************************************************
[...]
Warning: op=0 Small HOMO/LUMO gap (   0.020) - skipping pre-diagonalization
         Will do a full diagonalization
    2    -489.9558039419863462    -1.08e+00  5.56e-02  2.45e+00  2.47e-01  0.700  65.0
                               ***Turning on AO-DIIS***
    3    -490.6861390757187564    -7.30e-01  4.55e-02  1.87e+00  1.75e-01  0.700  49.7
    4    -491.2125698903433886    -5.26e-01  3.26e-02  1.21e+00  1.22e-01  0.700  62.7
    5    -491.6175450507215601    -4.05e-01  2.32e-02  8.18e-01  8.49e-02  0.700  54.6
    6    -491.9250016875333813    -3.07e-01  5.62e-02  2.03e+00  5.95e-02  0.000  59.6
    7    -492.7132970494526489    -7.88e-01  9.76e-03  2.21e-01  1.94e-02  0.000  54.6
    8    -492.7273246598913374    -1.40e-02  7.48e-03  2.39e-01  9.54e-03  0.000  51.2
    9    -492.7356759181758434    -8.35e-03  9.57e-03  3.12e-01  8.96e-03  0.000  52.6
   10    -492.7442105722841461    -8.53e-03  8.63e-03  2.84e-01  6.62e-03  0.000  52.0
   11    -492.7499346193291103    -5.72e-03  8.33e-03  2.73e-01  5.87e-03  0.000  56.0
   12    -492.7542051632372022    -4.27e-03  7.69e-03  2.62e-01  5.61e-03  0.000  61.9
   13    -492.7575051267093613    -3.30e-03  8.38e-03  2.93e-01  5.26e-03  0.000  58.1
   14    -492.7606476283641541    -3.14e-03  7.69e-03  2.85e-01  4.89e-03  0.000  48.9
   15    -492.7632697127008896    -2.62e-03  8.33e-03  3.15e-01  4.43e-03  0.000  48.8
   16    -492.7656689383667299    -2.40e-03  5.74e-03  2.36e-01  3.80e-03  0.000  59.0
                              *** Initializing SOSCF ***
---------------------------------------S-O-S-C-F--------------------------------------
Iteration    Energy (Eh)           Delta-E    RMSDP     MaxDP     MaxGrad    Time(sec)
--------------------------------------------------------------------------------------
   17    -492.7671983063921743    -1.53e-03  5.68e-03  2.38e-01  3.16e-03    54.0
               *** Restarting incremental Fock matrix formation ***
   18    -492.7685075805304677    -1.31e-03  4.43e-03  1.86e-01  4.92e-03    50.1
   19    -492.7692720009265486    -7.64e-04  5.75e-03  1.96e-01  3.22e-03    55.3
   20    -492.7697917549895692    -5.20e-04  3.69e-03  1.62e-01  2.04e-03    55.6
   21    -492.7699128839077503    -1.21e-04  1.12e-03  5.36e-02  7.88e-04    54.6
   22    -492.7699435282619334    -3.06e-05  1.97e-03  8.98e-02  7.36e-04    57.0
   23    -492.7699820664541903    -3.85e-05  3.73e-03  1.65e-01  7.57e-04    53.2
   24    -492.7700584575459288    -7.64e-05  4.67e-03  1.91e-01  9.24e-04    50.9
   25    -492.7701922309266820    -1.34e-04  5.13e-03  1.62e-01  1.31e-03    53.1
   26    -492.7704026178081449    -2.10e-04  3.60e-03  4.20e-02  1.51e-03    48.5
   27    -492.7706005791262669    -1.98e-04  5.57e-03  2.34e-01  1.52e-03    52.3
   28    -492.7707285346733670    -1.28e-04  2.46e-03  9.89e-02  6.15e-04    54.1
   29    -492.7707473495167960    -1.88e-05  7.64e-04  1.67e-02  3.32e-04    52.1
   30    -492.7707516802380496    -4.33e-06  6.01e-04  2.42e-02  1.33e-04    53.2
   31    -492.7707525639979167    -8.84e-07  4.21e-04  1.93e-02  3.25e-05    55.1
                 **** Energy Check signals convergence ****

               *****************************************************
               *                     SUCCESS                       *
               *           SCF CONVERGED AFTER  31 CYCLES          *
               *****************************************************


------------------
NL GRID GENERATION
------------------

General Integration Accuracy     IntAcc      ... 4.004
Radial Grid Type                 RadialGrid  ... OptM3 with GC (2021)
Angular Grid (max. ang.)         AngularGrid ... 2 (Lebedev-110)
Angular grid pruning method      GridPruning ... 4 (adaptive)
Weight generation scheme         WeightScheme... mBecke (2022)
Basis function cutoff            BFCut       ... 1.0000e-10
Integration weight cutoff        WCut        ... 1.0000e-14
Partially contracted basis set               ... off
Rotationally invariant grid construction     ... off
Angular grids for H and He will be reduced by one unit
Diffuse basis detected: some atoms will have their outermost
                        angular grid increased by 1.

Total number of grid points                  ...     8473
Total number of batches                      ...      135
Average number of points per batch           ...       62
Average number of grid points per atom       ...     1695
Final grid set up in    0.0 sec

-------------------------------------------------------------------------------
                    post-SCF DFT-NL dispersion correction                      
-------------------------------------------------------------------------------

SCF Energy:     -492.770752564 
NL    Energy:      0.115096685 
SC+NL Energy:   -492.655655879 
NL done in  :              2.8 sec
-------------------------------------------------------------------------------
Recomputing exchange energy using gridx3       ... done (    3.899 sec)
Old exchange energy                            :     -8.946445831 Eh
New exchange energy                            :     -8.946400924 Eh
Exchange energy change after final integration :      0.000044907 Eh
Total energy after final integration           :   -492.655610972 Eh
             **** ENERGY FILE WAS UPDATED (orca.en.tmp) ****

----------------
TOTAL SCF ENERGY
----------------

Total Energy       :       -492.65561097152556 Eh          -13405.84071 eV

Components:
Nuclear Repulsion  :        103.48779945179068 Eh            2816.04619 eV
Electronic Energy  :       -596.25855201578861 Eh          -16225.02006 eV
One Electron Energy:       -876.24463235236090 Eh          -23843.82864 eV
Two Electron Energy:        279.98608033657229 Eh            7618.80858 eV

Virial components:
Potential Energy   :      -1003.01530414573256 Eh          -27293.43400 eV
Kinetic Energy     :        510.35969317420700 Eh           13887.59328 eV
Virial Ratio       :          1.96531057910830

DFT components:
N(Alpha)           :       14.000923897569 electrons
N(Beta)            :       14.000923897568 electrons
N(Total)           :       28.001847795137 electrons
NL Energy, E(C,NL) :        0.115096685340 Eh       
E(XC)              :      -27.161912940318 Eh       

---------------
SCF CONVERGENCE
---------------

  Last Energy change         ...    8.8376e-07  Tolerance :   1.0000e-06
  Last MAX-Density change    ...    1.9259e-02  Tolerance :   1.0000e-05
  Last RMS-Density change    ...    4.2116e-04  Tolerance :   1.0000e-06
  Last DIIS Error            ...    3.1647e-03  Tolerance :   1.0000e-06
  Last Orbital Gradient      ...    3.2544e-05  Tolerance :   5.0000e-05
  Last Orbital Rotation      ...    1.4681e-03  Tolerance :   5.0000e-05


----------------------
UHF SPIN CONTAMINATION
----------------------

Warning: in a DFT calculation there is little theoretical justification to 
         calculate <S**2> as in Hartree-Fock theory. We will do it anyways
         but you should keep in mind that the values have only limited relevance

Expectation value of <S**2>     :    -0.000000
Ideal value S*(S+1) for S=0.0   :     0.000000
Deviation                       :    -0.000000

Total SCF time: 0 days 0 hours 28 min 34 sec 
Finished LeanSCF after 1723.2 sec

Maximum memory used throughout the entire LEANSCF-calculation: 20.2 MB

-------------------------   --------------------
FINAL SINGLE POINT ENERGY      -492.655610971526
-------------------------   --------------------



           ************************************************************
           *        Program running with 2 parallel MPI-processes     *
           *              working on a common directory               *
           ************************************************************

------------------------------------------------------------------------------
                              ORCA PROPERTY CALCULATIONS
------------------------------------------------------------------------------

GBWName                                 ... orca.gbw
Number of atoms                         ...      5
Number of basis functions               ...    110
Max core memory                         ...   1024 MB

Electric properties:
Dipole moment                           ... YES
Quadrupole moment                       ...  NO
Static polarizability (Dipole/Dipole)   ...  NO
Static polarizability (Dipole/Quad.)    ...  NO
Static polarizability (Quad./Quad.)     ...  NO
Static polarizability (Velocity)        ...  NO

Atomic electric properties:
Dipole moment                           ...  NO
Quadrupole moment                       ...  NO
Static polarizability                   ...  NO

Choice of electric origin               ... Center of mass
Position of electric origin             ...     5.379802     0.177124     0.017548

General magnetic properties:
Magnetizability                         ...  NO

EPR properties:
g-Tensor (aka g-matrix)                 ...  NO
Zero-Field splitting spin-orbit         ...  NO
Zero-field splitting spin-spin          ...  NO
Hyperfine couplings                     ...  NO (   0 nuclei)
Quadrupole couplings                    ...  NO (   0 nuclei)
Contact density                         ...  NO (   0 nuclei)

NMR properties:
Chemical shifts                         ...  NO (   0 nuclei)
Spin-rotation constants                 ...  NO (   0 nuclei)
Spin-spin couplings                     ...  NO (   0 nuclei,    0 pairs)

Choice of magnetic origin               ... GIAO
Position of magnetic origin             ...     0.000000     0.000000     0.000000

Properties with geometric perturbations:
SCF Hessian                             ...  NO
IR spectrum                             ...  NO
VCD spectrum                            ...  NO
X-ray spectroscopy properties:
SCF XES/XAS/RIXS spectra                ...  NO


-------------
DIPOLE MOMENT
-------------

Method             : SCF
Type of density    : Electron Density
Multiplicity       :   1
Irrep              :   0
Energy             :  -492.6556109715255616 Eh
Relativity type    : 
Basis              : AO
                                X                 Y                 Z
Electronic contribution:     16.002038865      -1.206761918      -0.950793353
Nuclear contribution   :     -7.298172676      -0.405789981      -0.017146373
                        -----------------------------------------
Total Dipole Moment    :      8.703866190      -1.612551898      -0.967939726
                        -----------------------------------------
Magnitude (a.u.)       :      8.904746913
Magnitude (Debye)      :     22.634067894



--------------------
Rotational spectrum 
--------------------
 
Rotational constants in cm-1:             1.125793             0.582080             0.471710 
Rotational constants in MHz :         33750.435059         17450.320338         14141.511275 

Dipole components along the rotational axes: 
x,y,z [a.u.] :     8.732917    -0.795918    -1.548289 
x,y,z [Debye]:    22.197310    -2.023062    -3.935438 

 

Dipole moment calculation done in   2.0 sec 

Maximum memory used throughout the entire PROP-calculation: 13.1 MB
                              **** MULTIPLE XYZ DONE ***

                         SUMMARY OF THE CALCULATED SURFACE

-------------------------
MULTIPLE XYZ SCAN RESULTS
-------------------------

The Calculated Surface using the 'Actual Energy'
   1.00000000 -499.98924496
   2.00000000 -499.98826286
   3.00000000 -499.98727399
   4.00000000 -499.98626331
   5.00000000 -499.98523095
   6.00000000 -499.98417693
   7.00000000 -499.98310103
   8.00000000 -499.98200298
   9.00000000 -499.98088172
  10.00000000 -499.97973497
  11.00000000 -499.97856147
  12.00000000 -499.97736148
  13.00000000 -499.97612720
  14.00000000 -499.97485622
  15.00000000 -499.97354920
  16.00000000 -499.97219969
  17.00000000 -499.97080801
  18.00000000 -499.96937388
  19.00000000 -499.96789693
  20.00000000 -499.96638081
  21.00000000 -499.96482024
  22.00000000 -499.96321598
  23.00000000 -499.96155706
  24.00000000 -499.95984420
  25.00000000 -499.95805863
  26.00000000 -499.95620485
  27.00000000 -499.95427419
  28.00000000 -499.95225371
  29.00000000 -499.95015706
  30.00000000 -499.94794596
  31.00000000 -499.94563404
  32.00000000 -499.94321010
  33.00000000 -499.94065231
  34.00000000 -499.93794857
  35.00000000 -499.93507412
  36.00000000 -499.93201155
  37.00000000 -499.92871874
  38.00000000 -499.92516517
  39.00000000 -499.92129123
  40.00000000 -499.91703272
  41.00000000 -499.91232064
  42.00000000 -499.90707764
  43.00000000 -499.90124273
  44.00000000 -499.89484865
  45.00000000 -499.88817099
  46.00000000 -499.88201168
  47.00000000 -499.87713749
  48.00000000 -499.87482551
  49.00000000 -499.88655269
  50.00000000 -499.90098213
  51.00000000 -499.91371144
  52.00000000 -499.92242273
  53.00000000 -499.92431039
  54.00000000 -499.91527213
  55.00000000 -499.88908115
  56.00000000 -499.83606303
  57.00000000 -499.74090288
  58.00000000 -499.57819164
  59.00000000 -499.30590114
  60.00000000 -498.85753208
  61.00000000 -498.12582654
  62.00000000 -496.94631850
  63.00000000 -495.12215753
  64.00000000 -492.65561097

The Calculated Surface using the SCF energy
   1.00000000 -499.98924496
   2.00000000 -499.98826286
   3.00000000 -499.98727399
   4.00000000 -499.98626331
   5.00000000 -499.98523095
   6.00000000 -499.98417693
   7.00000000 -499.98310103
   8.00000000 -499.98200298
   9.00000000 -499.98088172
  10.00000000 -499.97973497
  11.00000000 -499.97856147
  12.00000000 -499.97736148
  13.00000000 -499.97612720
  14.00000000 -499.97485622
  15.00000000 -499.97354920
  16.00000000 -499.97219969
  17.00000000 -499.97080801
  18.00000000 -499.96937388
  19.00000000 -499.96789693
  20.00000000 -499.96638081
  21.00000000 -499.96482024
  22.00000000 -499.96321598
  23.00000000 -499.96155706
  24.00000000 -499.95984420
  25.00000000 -499.95805863
  26.00000000 -499.95620485
  27.00000000 -499.95427419
  28.00000000 -499.95225371
  29.00000000 -499.95015706
  30.00000000 -499.94794596
  31.00000000 -499.94563404
  32.00000000 -499.94321010
  33.00000000 -499.94065231
  34.00000000 -499.93794857
  35.00000000 -499.93507412
  36.00000000 -499.93201155
  37.00000000 -499.92871874
  38.00000000 -499.92516517
  39.00000000 -499.92129123
  40.00000000 -499.91703272
  41.00000000 -499.91232064
  42.00000000 -499.90707764
  43.00000000 -499.90124273
  44.00000000 -499.89484865
  45.00000000 -499.88817099
  46.00000000 -499.88201168
  47.00000000 -499.87713749
  48.00000000 -499.87482551
  49.00000000 -499.88655269
  50.00000000 -499.90098213
  51.00000000 -499.91371144
  52.00000000 -499.92242273
  53.00000000 -499.92431039
  54.00000000 -499.91527213
  55.00000000 -499.88908115
  56.00000000 -499.83606303
  57.00000000 -499.74090288
  58.00000000 -499.57819164
  59.00000000 -499.30590114
  60.00000000 -498.85753208
  61.00000000 -498.12582654
  62.00000000 -496.94631850
  63.00000000 -495.12215753
  64.00000000 -492.65561097


--------------------------------
SUGGESTED CITATIONS FOR THIS RUN
--------------------------------

Below you find a list of papers that are relevant to this ORCA run
We neither can nor want to force you to cite these papers, but we appreciate if you do
You receive ORCA, which is the product of decades of hard work by many enthusiastic individuals, for free
The only thing we kindly ask in return is that you cite our papers,
We deeply appreciate it, if you show your appreciation for ORCA by not just citing the generic ORCA reference.

Please note that relegating all ORCA citations to the supporting information does *not* help us.
SI sections are not indexed - citations you put there will not count into any citation statistics
But we need these citations in order to attract the funding resources that allow us to do what we are doing

Therefore, if you are a happy ORCA user, please consider citing a few of the papers listed below in the main body of your paper

In addition to the list printed below, the program has created the file orca.bibtex that contains the list in bibtex format
You can import this file easily into all common literature databanks and citation aid programs


List of essential papers. We consider these as the minimum necessary citations

  1. Neese,F.
     Software update: the ORCA program system, version 5.0
     WIRES Comput. Molec. Sci., 2022 12(1)e1606
     doi.org/10.1002/wcms.1606

List of papers to cite with high priority. The work reported in these papers was absolutely
necessary for this run to complete.
Our perspective: the developers of density functionals and basis sets usually get cited in chemistry papers
Good! But without the algorithms to do something with them, the functionals or basis sets would not do anything.
Hence, in our opinion, the algorithm design and method developments papers are equally worthy of getting cited

  1. Neese,F.
     An improvement of the resolution of the identity approximation for the formation of the Coulomb matrix
     J. Comp. Chem., 2003 24(14)1740-1747
     doi.org/10.1002/jcc.10318
  2. Neese,F.; Wennmohs,F.; Hansen,A.; Becker,U.
     Efficient, approximate and parallel Hartree-Fock and hybrid DFT calculations. A 'chain-of-spheres' algorithm for the Hartree-Fock exchange
     Chem. Phys., 2009 356(1-3)98-109
     doi.org/10.1016/j.chemphys.2008.10.036
  3. Helmich-Paris,B.; de Souza,B.; Neese,F.; Izsák,R.
     An improved chain of spheres for exchange algorithm
     J. Chem. Phys., 2021 155 104109
     doi.org/doi: 10.1063/5.0058766.
  4. Neese,F.
     The SHARK Integral Generation and Digestion System
     J. Comp. Chem., 2022  1-16
     doi.org/10.1002/jcc.26942
  5. Lehtola,S.; Steigemann,C.; Oliveira,M.; Marques,M.
     Recent developments in Libxc - A comprehensive library of functionals for density functional theory
     Software X, 2018 7 
     doi.org/10.1016/j.softx.2017.11.002

List of suggested additional citations. These are papers that are important in the 'surrounding' of 
of this run, or papers that preceded the highly important papers. If you like your results we are grateful for a citation.

  1. Izsak,R.; Neese,F.
     An overlap fitted chain of spheres exchange method
     J. Chem. Phys., 2011 135 144105
     doi.org/10.1063/1.3646921
  2. Izsak,R.; Hansen,A.; Neese,F.
     The resolution of identity and chain of spheres approximations for the LPNO-CCSD singles Fock term
     Molec. Phys., 2012 110 2413-2417
     doi.org/10.1080/00268976.2012.687466
  3. Neese,F.
     The ORCA program system
     WIRES Comput. Molec. Sci., 2012 2(1)73-78
     doi.org/10.1002/wcms.81
  4. Izsak,R.; Neese,F.; Klopper,W.
     Robust fitting techniques in the chain of spheres approximation to the Fock exchange: The role of the complementary space
     J. Chem. Phys., 2013 139 
     doi.org/10.1063/1.4819264
  5. Neese,F.
     Software update: the ORCA program system, version 4.0
     WIRES Comput. Molec. Sci., 2018 8(1)1-6
     doi.org/10.1002/wcms.1327
  6. Neese,F.; Wennmohs,F.; Becker,U.; Riplinger,C.
     The ORCA quantum chemistry program package
     J. Chem. Phys., 2020 152 Art. No. L224108
     doi.org/10.1063/5.0004608

List of optional additional citations

  1. Neese,F.
     Approximate second-order SCF convergence for spin unrestricted wavefunctions
     Chem. Phys. Lett., 2000 325(1-3)93-98
     doi.org/10.1016/s0009-2614(00)00662-x

Timings for individual modules:

Sum of individual times          ...    32259.443 sec (= 537.657 min)
Startup calculation              ...      562.761 sec (=   9.379 min)   1.7 %
SCF iterations                   ...    31339.204 sec (= 522.320 min)  97.1 %
Property calculations            ...      357.478 sec (=   5.958 min)   1.1 %
                             ****ORCA TERMINATED NORMALLY****
TOTAL RUN TIME: 0 days 8 hours 58 minutes 25 seconds 94 msec
