LAMMPS data file via write_data, version 23 Jun 2022, timestep = 1000000

1072 atoms
13 atom types
1024 bonds
14 bond types
1728 angles
25 angle types
2432 dihedrals
31 dihedral types

0 242.92000000000002 xlo xhi
-0.2697900299217848 17.755990029920802 ylo yhi
-0.2678164101008024 17.593616410100726 zlo zhi

Masses

1 1.008
2 1.008
3 1.008
4 1.008
5 126.9
6 12.01
7 12.01
8 12.01
9 12.01
10 12.01
11 12.01
12 14.01
13 207.2

Bond Coeffs # harmonic

1 330.6 1.0969
2 345.8 1.086
3 345.8 1.086
4 338.7 1.091
5 373.2 1.0304
6 461.1 1.3984
7 321 1.5156
8 461.1 1.3984
9 461.1 1.3984
10 461.1 1.3984
11 450.2 1.4058
12 351.4 1.4854
13 300.9 1.5375
14 283.3 1.511

Angle Coeffs # harmonic

1 39.4 107.58
2 46.8 110.47
3 46.34 109.8
4 48.18 119.88
5 48.18 119.88
6 48.18 119.88
7 48.18 119.88
8 48.18 119.88
9 47.98 119.86
10 39.22 109.75
11 46.2 110.56
12 48.65 108.01
13 40.58 108.3
14 45.85 110.11
15 66.62 120.02
16 63.15 112.07
17 66.62 120.02
18 66.62 120.02
19 66.26 120.69
20 66.62 120.02
21 63.53 120.77
22 66.26 120.69
23 66.72 118.38
24 64.05 121.11
25 64.18 114.21

Dihedral Coeffs # opls

1 0 0 0 0
2 0 0 0.311111 0
3 0 0 0.311111 0
4 0 7.25 0 0
5 0 7.25 0 0
6 0 7.25 0 0
7 0 7.25 0 0
8 0 7.25 0 0
9 0 7.25 0 0
10 0 7.25 0 0
11 0 7.25 0 0
12 0 7.25 0 0
13 0 7.25 0 0
14 0 7.25 0 0
15 0 7.25 0 0
16 0 7.25 0 0
17 0 0 0.311111 0
18 0 0 0.311111 0
19 0 0 0.311111 0
20 0 7.25 0 0
21 0 0 0.311111 0
22 0 7.25 0 0
23 0 7.25 0 0
24 0 7.25 0 0
25 0 7.25 0 0
26 0 7.25 0 0
27 0 0 0 0
28 0 7.25 0 0
29 0 7.25 0 0
30 0 7.25 0 0
31 0 2 0 0

Atoms # full

69 36 7 -0.1239881194029851 11.962469434691986 2.140614914217929 0.41909265944655005 0 0 1
573 572 8 -0.1765461194029851 12.291435209334756 2.764026521174519 7.19701607965818 0 0 0
681 572 9 0.0991558805970149 13.584640946910692 2.3030396045425072 7.281133384533415 0 0 0
93 36 2 0.140938880597015 13.762418072075205 1.5771237583213438 1.428062074294417 0 0 1
726 572 8 -0.1765461194029851 14.523258404432896 3.3234857769371726 5.122331803392551 0 0 0
77 36 2 0.140938880597015 11.336373804155434 1.9548069804296655 1.3224037175879482 0 0 1
85 36 7 -0.1239881194029851 13.333284245683716 1.8842195658603405 0.4750933067763633 0 0 1
701 572 9 0.0991558805970149 14.488746442155403 2.28332940821404 6.070468952408429 0 0 0
581 572 2 0.140938880597015 11.956761545967119 3.198755003637806 6.173555960249421 0 0 0
705 572 2 0.140938880597015 15.021821063811485 1.4496421302403277 8.638417315785704 0 0 0
589 572 7 -0.1239881194029851 11.347934257496904 2.648847199411181 8.235552240804768 0 0 0
685 572 8 -0.1765461194029851 14.031455579957264 1.794505209859172 8.488906899870905 0 0 0
597 572 2 0.140938880597015 10.28051012574875 2.8551834597209913 8.096910785404805 0 0 0
735 572 2 0.140938880597015 13.906400815473452 4.17895708428369 5.244221936345565 0 0 0
621 572 7 -0.1239881194029851 13.17788313267995 1.7201424432895658 9.627180134907825 0 0 0
613 572 2 0.140938880597015 11.14599247580877 2.079935818680933 10.419221368198667 0 0 0
145 36 9 0.0991558805970149 13.53703973722796 2.3157347142328164 16.03415739705517 0 0 0
605 572 7 -0.1239881194029851 11.819477437662693 2.1833604132559676 9.52779513978468 0 0 0
629 572 2 0.140938880597015 13.525490785825752 1.3237074275342182 10.581935823485582 0 0 0
37 36 8 -0.1765461194029851 12.163040543101515 2.4503532222202336 15.968497261340842 0 0 0
190 36 8 -0.1765461194029851 14.405924187699467 3.2679365744275666 13.833635122976604 0 0 0
165 36 9 0.0991558805970149 14.344235222363867 2.212369234843348 14.741741909054099 0 0 0
45 36 2 0.140938880597015 11.709913789318353 2.739502129903808 15.015035564532608 0 0 0
53 36 7 -0.1239881194029851 11.328680927246973 2.4673146837078876 17.109267527486775 0 0 0
199 36 2 0.140938880597015 13.697720595694078 4.097722423804519 13.923371931768605 0 0 0
61 36 2 0.140938880597015 10.20593065054069 2.541138849615215 17.02453634448828 0 0 0
149 36 8 -0.1765461194029851 14.131341356868443 1.9627899961860418 17.221327493169 0 0 0
169 36 2 0.140938880597015 15.14800162727384 1.784981610593015 17.328119007121494 0 0 0
79 1 2 0.140938880597015 11.640645914608484 6.242176683271711 6.332673627635922 0 0 0
63 1 2 0.140938880597015 13.956196571122788 6.982093831109936 6.439287587529637 0 0 0
18 1 9 0.0991558805970149 14.446294701208926 6.574358627376099 1.7799938659877654 0 0 0
55 1 7 -0.1239881194029851 13.539914196486974 6.784219241827915 5.48046728181919 0 0 0
34 1 9 0.0991558805970149 13.658701153486295 6.5522108582935354 3.050695992097234 0 0 0
39 1 8 -0.1765461194029851 14.241449063286279 6.911298694539149 4.287679862053009 0 0 0
106 1 2 0.140938880597015 11.745027652544115 6.0049988854508225 2.141871783303476 0 0 0
71 1 7 -0.1239881194029851 12.239565194944598 6.338400853264866 5.428337489818442 0 0 0
22 1 8 -0.1765461194029851 14.616638940252306 5.427030563854987 0.916681264186026 0 0 0
102 1 8 -0.1765461194029851 12.289460438521484 6.263470132717855 3.058604329988072 0 0 0
87 1 7 -0.1239881194029851 11.582573944800254 6.129438006462868 4.227372600626558 0 0 0
95 1 2 0.140938880597015 10.500909823986516 5.979408481188665 4.251536243368494 0 0 0
26 1 2 0.140938880597015 14.099953179213346 4.531957625253416 1.242326432654997 0 0 0
10 1 8 -0.1765461194029851 15.089502823919906 7.717881912091788 1.3883749789727506 0 0 0
591 537 7 -0.1239881194029851 13.470478127100147 6.713322588811444 14.164725290422718 0 0 0
575 537 8 -0.1765461194029851 14.250625803639673 6.826879313388242 13.028534311669707 0 0 0
638 537 8 -0.1765461194029851 12.38860500673117 5.983618279162078 11.69788717927759 0 0 0
623 537 7 -0.1239881194029851 11.605690221535223 5.840624308453718 12.862947765821156 0 0 0
599 537 2 0.140938880597015 13.910082149997889 6.8271605299544795 15.130719596524571 0 0 0
570 537 9 0.0991558805970149 13.750959254606904 6.461846225536734 11.800976947079036 0 0 0
607 537 7 -0.1239881194029851 12.167893480463054 6.207219591809872 14.084407486524492 0 0 0
554 537 9 0.0991558805970149 14.616260910040078 6.542833541530835 10.583627654718914 0 0 0
642 537 2 0.140938880597015 11.983779344700995 5.723500360693928 10.707721572526788 0 0 0
562 537 2 0.140938880597015 14.006891783078549 4.558896001946225 9.92769077676832 0 0 0
615 537 2 0.140938880597015 11.633655947882474 6.01463087569916 14.962430121068525 0 0 0
558 537 8 -0.1765461194029851 14.643829563031767 5.439528568923185 9.698704695935659 0 0 0
631 537 2 0.140938880597015 10.542250905246252 5.561474179414915 12.83883863109396 0 0 0
949 840 9 0.0991558805970149 13.662173197007256 11.330154211847892 7.2787928740243215 0 0 0
329 304 2 0.140938880597015 13.85596079115195 10.55910639647529 1.5114911663824264 0 0 1
345 304 2 0.140938880597015 11.46942345760929 11.378546078300566 1.5590480456676672 0 0 1
953 840 8 -0.1765461194029851 12.2530242811408 11.71465430379801 7.232135286689582 0 0 0
969 840 9 0.0991558805970149 14.576378115778196 11.303844564754208 6.059995731357509 0 0 0
337 304 7 -0.1239881194029851 11.997922777925353 11.465652794110142 0.6145342528577052 0 0 1
994 840 8 -0.1765461194029851 14.604145070317747 12.38428326589106 5.1587515678216604 0 0 0
973 840 2 0.140938880597015 11.84938456546767 12.023768765713655 6.355055921903225 0 0 0
321 304 7 -0.1239881194029851 13.345836680652848 11.026370989864128 0.629307283270118 0 0 1
1002 840 2 0.140938880597015 15.142741579406916 9.243880735327993 6.414093981404153 0 0 0
889 840 7 -0.1239881194029851 11.437822888762588 11.581961346660496 8.337002695806275 0 0 0
897 840 2 0.140938880597015 10.402334789602747 11.822259946599491 8.227032275196425 0 0 0
841 840 8 -0.1765461194029851 14.196536808641346 10.886272880321378 8.479794100998994 0 0 0
881 840 2 0.140938880597015 11.361125530995674 11.240551734706708 10.495609907700452 0 0 0
433 304 9 0.0991558805970149 14.299257415051478 11.376541799060103 14.837811212572428 0 0 0
413 304 9 0.0991558805970149 13.513839847407253 11.540014441921759 16.101054313954073 0 0 0
437 304 2 0.140938880597015 11.794547758213556 12.596099089069282 15.177943789197911 0 0 0
873 840 7 -0.1239881194029851 11.964536679124704 11.213335281543257 9.550956603824288 0 0 0
417 304 8 -0.1765461194029851 12.251614427243545 12.186584452647702 16.100646814068007 0 0 0
857 840 7 -0.1239881194029851 13.327398690662687 10.768442928073577 9.589542614242266 0 0 0
865 840 2 0.140938880597015 13.648215298423947 10.588207791318945 10.59338644566661 0 0 0
458 304 8 -0.1765461194029851 14.495259184540654 12.380859248671477 13.81165621106272 0 0 0
361 304 2 0.140938880597015 10.473613108875632 12.52530644337016 17.387469346319453 0 0 0
466 304 2 0.140938880597015 14.905320776796852 9.436181435774772 15.432399144307084 0 0 0
353 304 7 -0.1239881194029851 11.48117536298252 12.126449942606637 17.331161369029335 0 0 0
305 304 8 -0.1765461194029851 14.084746382806287 11.094507236625667 17.304549994477064 0 0 0
457 304 8 -0.1765461194029851 15.024574872140057 10.200798571692145 14.672855683326441 0 0 0
313 304 2 0.140938880597015 15.116511897408964 10.7146159767635 17.281768367666505 0 0 0
347 269 2 0.140938880597015 11.070795041897382 15.7282193413567 5.748913995408671 0 0 0
286 269 9 0.0991558805970149 14.53287894347179 15.480465297652774 1.6549843494110137 0 0 0
363 269 2 0.140938880597015 10.756441214843704 13.932631714487016 3.8023114994704166 0 0 0
370 269 8 -0.1765461194029851 12.604559602213833 14.42928165009318 2.8661689925808074 0 0 0
302 269 9 0.0991558805970149 13.68181792496246 15.365157484308309 2.9021134531077113 0 0 0
339 269 7 -0.1239881194029851 11.80273375272072 15.477825844247239 4.995009890895334 0 0 0
290 269 8 -0.1765461194029851 14.953478842077503 14.332554320134342 0.906498773321677 0 0 0
323 269 7 -0.1239881194029851 12.990686802409567 16.20641078749164 5.0632552858400075 0 0 0
331 269 2 0.140938880597015 13.175436696492481 16.86781391565703 5.80852321029937 0 0 0
307 269 8 -0.1765461194029851 13.917057374534654 16.21984187438159 4.022518343932521 0 0 0
355 269 7 -0.1239881194029851 11.624337360261537 14.574377032472349 3.864836186041426 0 0 0
374 269 2 0.140938880597015 12.43919759331552 13.73755659842121 1.9838670616891323 0 0 0
282 269 2 0.140938880597015 14.790001253297294 17.61382988172144 1.8853556080399874 0 0 0
1003 840 2 0.140938880597015 14.135685620599375 13.36096313642438 5.395001788597203 0 0 0
315 269 2 0.140938880597015 14.790902146613623 16.813217632103296 3.9567067680919457 0 0 0
294 269 2 0.140938880597015 14.66277125517805 13.275545648677166 1.2513200986126012 0 0 0
278 269 8 -0.1765461194029851 15.05378379287105 16.75093647914313 1.2573142524873586 0 0 0
906 805 8 -0.1765461194029851 12.477947476636343 14.595473149836389 12.25015209213514 0 0 0
891 805 7 -0.1239881194029851 11.639389522295025 14.721767841425395 13.42139312583133 0 0 0
867 805 2 0.140938880597015 13.65255712537613 16.86520020636874 15.167482010101738 0 0 0
822 805 9 0.0991558805970149 14.52009428711072 15.32048680225796 10.733830947821515 0 0 0
883 805 2 0.140938880597015 11.379022458410615 15.862769811638996 15.190962441453822 0 0 0
838 805 9 0.0991558805970149 13.672627335439401 15.347163230896351 12.048942676501385 0 0 0
910 805 2 0.140938880597015 12.102464388219047 13.962031881545725 11.434985370820224 0 0 0
875 805 7 -0.1239881194029851 12.053255294069807 15.618506280660418 14.411685443129443 0 0 0
859 805 7 -0.1239881194029851 13.340825256751913 16.208033755380114 14.321227576164597 0 0 0
843 805 8 -0.1765461194029851 14.120216374311134 16.12245271518317 13.149753374469357 0 0 0
826 805 8 -0.1765461194029851 14.489337775133814 14.345068512703346 9.749756041482604 0 0 0
899 805 2 0.140938880597015 10.588373189320844 14.451681599982058 13.464329128426757 0 0 0
830 805 2 0.140938880597015 13.906048989589225 13.519344365234721 9.888395997541604 0 0 0
851 805 2 0.140938880597015 15.089543745044692 16.583406001624603 13.113929280258763 0 0 0
467 304 2 0.140938880597015 13.981930551818836 13.345892061636523 13.975336391391961 0 0 0
733 572 8 -0.1765461194029851 16.13446862401993 1.1014112233911777 4.671973532797247 0 0 0
115 114 5 -1.000000119402985 18.61904318600387 2.2214327698884575 7.827551920758579 0 0 0
122 121 13 1.999999880597015 21.70667153350351 2.055819331938665 8.171750114689875 0 0 0
779 572 12 -0.3899341194029851 19.207611966454362 2.4970124822437545 4.041373683021761 0 0 0
797 572 4 0.3380158805970149 19.191100780386126 3.4384428496275996 3.631281324404685 0 0 0
789 572 4 0.3380158805970149 18.625151896992982 2.513029403790765 4.875291874514719 0 0 0
801 572 4 0.3380158805970149 20.19385803691649 2.2613121693554294 4.222479365494592 0 0 0
734 572 2 0.140938880597015 15.286694919278089 0.3756924231826826 6.598652774638172 0 0 0
750 572 6 0.1072968805970149 16.3248972275957 2.1891850042110352 3.8043720416281963 0 0 0
761 572 10 -0.276051119402985 17.225738244264534 2.1051637255408715 2.5941141580505382 0 0 0
765 572 1 0.1309038805970149 16.799154833215432 1.4554784519822923 1.7914463023225171 0 0 0
766 572 11 0.07148288059701489 18.570791019532688 1.5929731867852512 3.0011369541360415 0 0 0
767 572 1 0.1309038805970149 17.359180100816268 3.162424740573038 2.215246918140518 0 0 0
777 572 3 0.0879148805970149 18.69586555546951 0.6155272927977496 3.452685723238071 0 0 0
778 572 3 0.0879148805970149 19.27667769501211 1.7069780459225596 2.1653059191607054 0 0 0
110 109 5 -1.000000119402985 21.579910578402195 0.12864778715047256 5.714258474941817 0 0 0
749 572 2 0.140938880597015 16.702177343855343 0.15554664414275507 4.490467205128099 0 0 0
119 118 5 -1.000000119402985 21.435588191127895 4.079755385728632 1.7114252835857862 0 0 0
725 572 8 -0.1765461194029851 15.254729666786838 1.1034523941033263 5.758210208101639 0 0 0
736 572 8 -0.1765461194029851 15.484322676699763 3.310548421200939 4.0649470716207325 0 0 0
751 572 2 0.140938880597015 15.59653349862689 4.210275063109558 3.4298738124187533 0 0 0
274 269 2 0.140938880597015 16.445720347066832 -0.22433985720073196 -0.09764461260747274 0 1 0
200 36 8 -0.1765461194029851 15.395107349961233 3.295234296467619 12.850015860426302 0 0 0
651 650 5 -1.000000119402985 18.490016415414967 2.292891787007704 16.81077328989918 0 0 0
658 657 13 1.999999880597015 21.71295697350913 2.0643751834309096 17.201216196181075 0 0 0
197 36 8 -0.1765461194029851 16.27502202452622 1.2065732614529918 13.62981740089367 0 0 0
214 36 6 0.1072968805970149 16.301860844616158 2.2470464386724274 12.698889514573356 0 0 0
225 36 10 -0.276051119402985 17.322649114797777 2.288479026678499 11.629312065006555 0 0 0
229 36 1 0.1309038805970149 17.04324016869231 1.5743905196069856 10.846541769658842 0 0 0
230 36 11 0.07148288059701489 18.73698566776408 1.794352657487443 12.065793964877027 0 0 0
231 36 1 0.1309038805970149 17.42290996755374 3.2927191021026982 11.088484653310113 0 0 0
241 36 3 0.0879148805970149 18.65313409770891 0.7834588525046273 12.509039603764746 0 0 0
242 36 3 0.0879148805970149 19.329923655470132 1.7378300894463656 11.150025190515406 0 0 0
243 36 12 -0.3899341194029851 19.38291763391685 2.765624265135009 12.97299216962224 0 0 0
253 36 4 0.3380158805970149 19.536987776942595 3.755809103317837 12.696268032871172 0 0 0
261 36 4 0.3380158805970149 20.401224638971385 2.445714066622344 13.090961969697569 0 0 0
265 36 4 0.3380158805970149 18.962364168906884 2.702798260493823 14.00279544449727 0 0 0
646 645 5 -1.000000119402985 21.567072989130065 0.1567843574430859 14.58626294194459 0 0 0
213 36 2 0.140938880597015 17.10819369765118 0.5365246684823981 13.615223620383189 0 0 0
655 654 5 -1.000000119402985 21.684782812236776 3.996369011359303 10.522557160431303 0 0 0
189 36 8 -0.1765461194029851 15.28323614634519 1.1634706549669045 14.669501286389343 0 0 0
198 36 2 0.140938880597015 15.323067143556948 0.42120195970746166 15.470119732619054 0 0 0
215 36 2 0.140938880597015 15.674458523250344 4.193407215609646 12.367692300819135 0 0 0
698 537 10 -0.276051119402985 17.295442223252387 6.686270057973527 7.237212298642295 0 0 0
678 537 2 0.140938880597015 15.5701233295234 4.642878080089777 7.912203518762458 0 0 0
109 108 5 -1.000000119402985 21.52200776398431 8.375727167126612 1.162264529803181 0 0 0
2 1 8 -0.1765461194029851 15.994460690998649 7.717100361176983 0.26704110381806867 0 0 0
113 112 5 -1.000000119402985 18.45438748902214 6.321100371465125 3.564829732624672 0 0 0
712 537 3 0.0879148805970149 19.39898625110611 6.995066850729092 6.824998213725348 0 0 0
121 120 13 1.999999880597015 21.716753911254063 6.607886180688942 3.757589190118903 0 0 0
720 537 1 0.1309038805970149 17.260865802340465 5.779785738448519 6.634004357020092 0 0 0
719 537 1 0.1309038805970149 17.03623406265328 7.412682474429896 6.514699271421839 0 0 0
711 537 3 0.0879148805970149 18.82814370854829 8.029412015346232 8.068128885506978 0 0 0
120 119 5 -1.000000119402985 21.529988007326157 4.566865074425887 6.017123813294857 0 0 0
694 537 11 0.07148288059701489 18.740330339671463 6.994068274673914 7.682079932152576 0 0 0
255 1 4 0.3380158805970149 18.14302696574633 5.818507179863808 0.6609271219714669 0 0 0
666 537 4 0.3380158805970149 19.063231430184945 5.006920813365273 8.279156698782113 0 0 0
6 1 2 0.140938880597015 16.61387279826787 8.602990980476019 0.1737755865366254 0 0 0
674 537 6 0.1072968805970149 16.250953815832375 6.675037918988951 8.345836549076022 0 0 0
662 537 12 -0.3899341194029851 19.248642629942474 5.966979486814414 8.638353160961694 0 0 0
30 1 8 -0.1765461194029851 15.387964827411398 5.433299268290199 -0.23777132797057315 0 0 0
134 1 4 0.3380158805970149 19.764031475664034 6.187446871339111 0.5223980168534619 0 0 0
47 1 2 0.140938880597015 15.346682939093599 7.006378247516996 4.20934725717483 0 0 0
126 1 12 -0.3899341194029851 18.888584848814716 5.9244271249251925 -0.037368491413162584 0 0 0
566 537 8 -0.1765461194029851 15.515157630795278 5.533925640482178 8.618160314439736 0 0 0
14 1 2 0.140938880597015 15.184827624513774 8.578130700311974 2.0746458863832067 0 0 0
158 1 11 0.07148288059701489 18.519432951659063 7.013219807792617 16.756084539140254 0 0 -1
162 1 10 -0.276051119402985 17.11525744356465 6.665738407894803 16.21081648055317 0 0 -1
657 656 13 1.999999880597015 21.658484229074823 6.784860129360376 12.74554559968337 0 0 0
176 1 3 0.0879148805970149 19.19529236550815 7.022251952173421 15.889641630109532 0 0 -1
183 1 1 0.1309038805970149 16.85654182657927 7.51417769620522 15.566433600812124 0 0 -1
184 1 1 0.1309038805970149 17.172762140203538 5.716401828961564 15.694947119601979 0 0 -1
130 1 4 0.3380158805970149 18.957400695630174 5.139199192514687 17.27388533778847 0 0 -1
645 644 5 -1.000000119402985 21.72120472803724 8.388889066873137 10.091233673704126 0 0 0
656 655 5 -1.000000119402985 21.572904971946567 4.6358698082543475 15.109138286362544 0 0 0
649 648 5 -1.000000119402985 18.472431087117837 6.541634535738971 12.301729662704975 0 0 0
538 537 8 -0.1765461194029851 16.221420152071346 7.739487310795054 9.292251583094137 0 0 0
138 1 6 0.1072968805970149 16.134523490811524 6.573591545332211 17.334659118714438 0 0 -1
791 537 4 0.3380158805970149 18.62006031430836 6.010237832533725 9.437303595572617 0 0 0
175 1 3 0.0879148805970149 18.54544855331795 7.955991040700795 17.373604013925885 0 0 -1
142 1 2 0.140938880597015 15.573580150772726 4.497518089753721 17.07784542738859 0 0 -1
542 537 2 0.140938880597015 17.087569545627627 8.449365175156368 9.207904304745878 0 0 0
550 537 2 0.140938880597015 15.30127154776402 8.555811697189721 11.040222978878727 0 0 0
546 537 8 -0.1765461194029851 15.42583961898627 7.6785039418506855 10.433812243271987 0 0 0
670 537 4 0.3380158805970149 20.204123432038994 6.162468779466753 8.956505951001823 0 0 0
583 537 2 0.140938880597015 15.30092815209816 7.219750423127653 13.171827646505545 0 0 0
390 389 13 1.999999880597015 21.74349558134762 10.92463158111878 8.267328706143646 0 0 0
383 382 5 -1.000000119402985 18.554446904199665 11.335277138749383 7.987536591857283 0 0 0
1047 840 12 -0.3899341194029851 19.000807847912654 11.697309970715429 4.223082521784548 0 0 0
849 840 2 0.140938880597015 15.203246732948173 10.600542326057713 8.555132785088349 0 0 0
378 377 5 -1.000000119402985 21.57808697534381 9.160678327523378 5.5864414193003995 0 0 0
1057 840 4 0.3380158805970149 19.32564437271944 12.58342728730392 3.9361345006265616 0 0 0
1069 840 4 0.3380158805970149 18.26279439923418 11.93169647239988 4.849886140314832 0 0 0
1065 840 4 0.3380158805970149 19.754834902923207 11.230649572097269 4.783596268897924 0 0 0
1018 840 6 0.1072968805970149 16.17014331552148 11.157160684199242 3.768603880539179 0 0 0
1029 840 10 -0.276051119402985 17.103255971962547 11.055682146451735 2.589664839394879 0 0 0
1033 840 1 0.1309038805970149 16.86013695183981 10.284269524835551 1.8208821354649152 0 0 0
1034 840 11 0.07148288059701489 18.57603160810406 10.723676253435505 3.1510957320138595 0 0 0
1035 840 1 0.1309038805970149 17.029560511224588 12.046923419335013 2.0645060523635985 0 0 0
1045 840 3 0.0879148805970149 18.69360373655123 9.705542607267425 3.586804284778587 0 0 0
1046 840 3 0.0879148805970149 19.327106523077063 10.796585038092394 2.3344249086200937 0 0 0
1001 840 8 -0.1765461194029851 16.065302649309345 10.0415619155659 4.588918771204613 0 0 0
387 386 5 -1.000000119402985 21.689985984539728 12.79568776255581 1.5999904811059922 0 0 0
1004 840 8 -0.1765461194029851 15.458875603950963 12.386490365548907 4.054701670245314 0 0 0
1017 840 2 0.140938880597015 16.60813372220975 9.16728846565009 4.437315799940839 0 0 0
993 840 8 -0.1765461194029851 15.245637467730113 10.151834017257789 5.715236792394802 0 0 0
465 304 8 -0.1765461194029851 15.990775479199119 10.084673148045203 13.688966200666126 0 0 0
919 918 5 -1.000000119402985 18.623712939636135 11.235291882507397 16.85151469531819 0 0 0
914 913 5 -1.000000119402985 21.6496212124937 9.118774847327549 14.4777562532581 0 0 0
926 925 13 1.999999880597015 21.706045194826046 10.732173359016207 17.272040171455057 0 0 0
482 304 6 0.1072968805970149 16.275222386712976 11.090927630031734 12.782313895019461 0 0 0
493 304 10 -0.276051119402985 17.429573665190727 10.825170422303604 11.820535718095384 0 0 0
497 304 1 0.1309038805970149 17.25633270347392 10.0068353718948 11.139770583583493 0 0 0
498 304 11 0.07148288059701489 18.69040164586457 10.52755378579328 12.46623250563586 0 0 0
499 304 1 0.1309038805970149 17.47631785894726 11.660222810436128 11.157135693416627 0 0 0
509 304 3 0.0879148805970149 18.612634060367174 9.6576852286934 13.091170006948289 0 0 0
510 304 3 0.0879148805970149 19.451720193557946 10.45452988528603 11.669403606686943 0 0 0
511 304 12 -0.3899341194029851 19.12985933116569 11.71621503876988 13.29741205659443 0 0 0
521 304 4 0.3380158805970149 19.413248003555218 12.50128563813269 12.71884281227214 0 0 0
529 304 4 0.3380158805970149 19.87668028154395 11.425754154352036 13.913532277414346 0 0 0
533 304 4 0.3380158805970149 18.321081268476274 12.018495398508831 13.883147030578847 0 0 0
468 304 8 -0.1765461194029851 15.544545254584115 12.241537911672962 12.870610882754823 0 0 0
481 304 2 0.140938880597015 16.535528742457053 9.158441678982953 13.667343243770391 0 0 0
923 922 5 -1.000000119402985 21.619725720033873 13.107510664066918 10.739845654840265 0 0 0
483 304 2 0.140938880597015 15.810327617116648 13.004473797965696 12.225426868853754 0 0 0
987 805 1 0.1309038805970149 16.83409400718006 16.40953032027252 6.592551817070109 0 0 0
1019 840 2 0.140938880597015 15.648659512885894 13.34933682289886 3.457495556395105 0 0 0
523 269 4 0.3380158805970149 18.43076274596984 14.469208876428443 0.2748351328826806 0 0 0
388 387 5 -1.000000119402985 21.611956383328025 13.583549340905586 6.218580476940258 0 0 0
381 380 5 -1.000000119402985 18.552358248026053 15.309844103261783 3.5588334296523683 0 0 0
377 376 5 -1.000000119402985 21.688275208391275 17.67605649105089 1.33508416420134 0 0 0
389 388 13 1.999999880597015 21.566027568865895 15.765819183884105 3.8315342467231055 0 0 0
980 805 3 0.0879148805970149 19.198466131244423 16.261335002538107 6.942115711653085 0 0 0
298 269 8 -0.1765461194029851 15.90933579447404 14.40072554286471 -0.1153993157929183 0 0 0
946 805 2 0.140938880597015 15.458242889040688 13.549713814429252 7.940346522686962 0 0 0
988 805 1 0.1309038805970149 17.186163661549536 14.731771731585171 6.616643044287018 0 0 0
962 805 11 0.07148288059701489 18.531959593808693 16.05611270501582 7.7762825716550115 0 0 0
966 805 10 -0.276051119402985 17.166288769147602 15.624482787157289 7.284460584460562 0 0 0
270 269 8 -0.1765461194029851 15.925008647779068 16.851351184017016 0.14529782207666025 0 0 0
979 805 3 0.0879148805970149 18.526289365592568 16.915339474329937 8.444967291618916 0 0 0
942 805 6 0.1072968805970149 16.151211974452348 15.578574692489438 8.401342448082719 0 0 0
402 269 4 0.3380158805970149 19.94044189374351 15.119003961653938 0.33103687735312365 0 0 0
930 805 12 -0.3899341194029851 19.1086892726706 14.913136812538523 8.604037682433233 0 0 0
938 805 4 0.3380158805970149 19.322279556303844 14.234073739810922 7.875451202990662 0 0 0
426 269 11 0.07148288059701489 18.658528092298592 15.98067313935233 16.732066293446653 0 0 -1
430 269 10 -0.276051119402985 17.266885881300695 15.733533877768437 16.08370490903458 0 0 -1
814 805 8 -0.1765461194029851 15.296353066891978 16.52736506989287 10.469546929986885 0 0 0
444 269 3 0.0879148805970149 19.360367110886877 16.138912115607226 15.931381316021866 0 0 -1
451 269 1 0.1309038805970149 17.108460717153562 16.63032140234076 15.3806131503214 0 0 -1
452 269 1 0.1309038805970149 17.20484303707757 14.795696828571792 15.517363977291925 0 0 -1
406 269 6 0.1072968805970149 16.29945452442226 15.690667511033261 17.262000878849335 0 0 -1
934 805 4 0.3380158805970149 18.491237839434255 14.465093652679927 9.304294728698949 0 0 0
925 924 13 1.999999880597015 21.67409737616973 15.754163481129268 12.824601106562204 0 0 0
818 805 2 0.140938880597015 15.324289691614913 17.347668683989845 11.146257157624957 0 0 0
913 912 5 -1.000000119402985 21.675552178141025 17.667479323531836 10.040526647305011 0 0 0
924 923 5 -1.000000119402985 21.807414180304576 13.659737955802184 15.146340871594118 0 0 0
917 916 5 -1.000000119402985 18.556539577148655 15.486519072203677 12.443375198360192 0 0 0
1059 805 4 0.3380158805970149 19.990772000775344 15.18376281756149 9.105965674637163 0 0 0
806 805 8 -0.1765461194029851 16.04651815198939 16.650088140881934 9.272613854726194 0 0 0
398 269 4 0.3380158805970149 19.631559414699556 14.048399354305099 17.175674227128628 0 0 -1
443 269 3 0.0879148805970149 18.673915093347293 16.876091576906447 17.359987747181325 0 0 -1
810 805 2 0.140938880597015 16.607232385104254 17.58766732707163 9.185828369310759 0 0 0
410 269 2 0.140938880597015 16.40225284179932 13.551057682083998 17.21193587981834 0 0 -1
834 805 8 -0.1765461194029851 15.422782573396997 14.394462850233229 8.674935855405785 0 0 0
394 269 12 -0.3899341194029851 19.179078527504807 14.870315447207906 17.58701435041148 0 0 -1
770 575 1 0.1309038805970149 26.45007943346066 1.8462023945508634 1.9402199910193019 0 0 0
782 575 12 -0.3899341194029851 24.06622261849562 2.800277273587235 4.20463815824804 0 0 0
738 575 2 0.140938880597015 27.802272709737235 0.6592269450818117 6.748111083858525 0 0 0
802 575 4 0.3380158805970149 23.636681442137743 3.561185237484566 3.6794819980164286 0 0 0
682 575 9 0.0991558805970149 29.654874679367538 2.3648060158903856 7.481993340066938 0 0 0
114 113 5 -1.000000119402985 24.649854861889708 2.280564818164973 7.975534316513377 0 0 0
781 575 3 0.0879148805970149 23.970311844016265 1.9797693528265108 2.476385801436096 0 0 0
798 575 4 0.3380158805970149 24.806480224271063 3.3084266479587248 4.802293254175737 0 0 0
702 575 9 0.0991558805970149 28.859705810552867 2.38105749008595 6.192503803693515 0 0 0
727 575 8 -0.1765461194029851 27.95459706796137 1.3316533795074792 5.934924380867154 0 0 0
728 575 8 -0.1765461194029851 28.812562690821487 3.453875698512627 5.26464772832989 0 0 0
737 575 8 -0.1765461194029851 27.14890209448038 1.285247445196478 4.812295493309378 0 0 0
792 575 4 0.3380158805970149 23.445016027222586 2.3005904774329076 4.93742491306378 0 0 0
739 575 8 -0.1765461194029851 28.031046176956423 3.4038254179292036 4.120206272587186 0 0 0
780 575 3 0.0879148805970149 24.69314752698123 0.8326419642997016 3.7220928519959133 0 0 0
753 575 6 0.1072968805970149 27.224761592515446 2.2703792028311787 3.860268987143295 0 0 0
762 575 10 -0.276051119402985 26.13654002022517 2.317863541637762 2.8532065323460025 0 0 0
768 575 11 0.07148288059701489 24.713247261777134 1.8390619864381266 3.2592894745801213 0 0 0
769 575 1 0.1309038805970149 25.96929884933201 3.3935413824737894 2.5239752144587912 0 0 0
752 575 2 0.140938880597015 26.42306364706711 0.49016564082839315 4.71494952811517 0 0 0
273 268 2 0.140938880597015 26.671985845285352 -0.22082964632865298 0.3410902061779226 0 1 0
25 0 2 0.140938880597015 29.025482513381952 4.2269395576138225 0.7095039275419038 0 0 0
650 649 5 -1.000000119402985 24.790740067322204 2.37995423252692 16.98470502953103 0 0 0
266 39 4 0.3380158805970149 23.967921354146092 3.534999589921431 12.31902046409647 0 0 0
166 39 9 0.0991558805970149 28.84484537201716 2.341560335573289 14.798866350690304 0 0 0
191 39 8 -0.1765461194029851 28.043567148942795 1.2337976814475484 14.710303711507335 0 0 0
192 39 8 -0.1765461194029851 28.56281039142779 3.4016385611121134 13.964803181407175 0 0 0
201 39 8 -0.1765461194029851 27.229607779671184 0.9912929830390373 13.68916128153214 0 0 0
262 39 4 0.3380158805970149 24.807696668442734 2.934841861811456 13.660585832889133 0 0 0
203 39 8 -0.1765461194029851 27.7788610506148 3.1769806100184566 12.821074822831127 0 0 0
600 575 2 0.140938880597015 29.83902277555568 1.1696669859795863 10.774165868136958 0 0 0
217 39 6 0.1072968805970149 27.107809516042902 1.9480807281281207 12.673681127353078 0 0 0
226 39 10 -0.276051119402985 26.141418300502036 1.7391450770165005 11.55832294953055 0 0 0
232 39 11 0.07148288059701489 24.68370740913743 1.589849304549176 12.037439714717262 0 0 0