LAMMPS data file via write_data, version 23 Jun 2022, timestep = 2050000

1072 atoms
13 atom types
1024 bonds
14 bond types
1728 angles
25 angle types
2432 dihedrals
31 dihedral types

0 242.92000000000002 xlo xhi
-0.2697900299217848 17.755990029920802 ylo yhi
-0.2678164101008024 17.593616410100726 zlo zhi

Masses

1 1.008
2 1.008
3 1.008
4 1.008
5 126.9
6 12.01
7 12.01
8 12.01
9 12.01
10 12.01
11 12.01
12 14.01
13 207.2

Bond Coeffs # harmonic

1 330.6 1.0969
2 345.8 1.086
3 345.8 1.086
4 338.7 1.091
5 373.2 1.0304
6 461.1 1.3984
7 321 1.5156
8 461.1 1.3984
9 461.1 1.3984
10 461.1 1.3984
11 450.2 1.4058
12 351.4 1.4854
13 300.9 1.5375
14 283.3 1.511

Angle Coeffs # harmonic

1 39.4 107.58
2 46.8 110.47
3 46.34 109.8
4 48.18 119.88
5 48.18 119.88
6 48.18 119.88
7 48.18 119.88
8 48.18 119.88
9 47.98 119.86
10 39.22 109.75
11 46.2 110.56
12 48.65 108.01
13 40.58 108.3
14 45.85 110.11
15 66.62 120.02
16 63.15 112.07
17 66.62 120.02
18 66.62 120.02
19 66.26 120.69
20 66.62 120.02
21 63.53 120.77
22 66.26 120.69
23 66.72 118.38
24 64.05 121.11
25 64.18 114.21

Dihedral Coeffs # opls

1 0 0 0 0
2 0 0 0.311111 0
3 0 0 0.311111 0
4 0 7.25 0 0
5 0 7.25 0 0
6 0 7.25 0 0
7 0 7.25 0 0
8 0 7.25 0 0
9 0 7.25 0 0
10 0 7.25 0 0
11 0 7.25 0 0
12 0 7.25 0 0
13 0 7.25 0 0
14 0 7.25 0 0
15 0 7.25 0 0
16 0 7.25 0 0
17 0 0 0.311111 0
18 0 0 0.311111 0
19 0 0 0.311111 0
20 0 7.25 0 0
21 0 0 0.311111 0
22 0 7.25 0 0
23 0 7.25 0 0
24 0 7.25 0 0
25 0 7.25 0 0
26 0 7.25 0 0
27 0 0 0 0
28 0 7.25 0 0
29 0 7.25 0 0
30 0 7.25 0 0
31 0 2 0 0

Atoms # full

581 572 2 0.140938880597015 12.03824862947715 3.3254972859729905 6.8473903584948586 0 0 0
573 572 8 -0.1765461194029851 12.509847063817935 2.9813454895547196 7.794363750996569 0 0 0
681 572 9 0.0991558805970149 13.760673910429343 2.3302991590928475 7.680766153284001 0 0 0
93 36 2 0.140938880597015 13.094859509463612 1.7500986334600082 1.4789104413759218 0 0 1
69 36 7 -0.1239881194029851 11.5934964003994 2.2466455619284664 0.13084803156683134 0 0 1
77 36 2 0.140938880597015 10.784323490224894 2.0618498341655807 0.9333909897504695 0 0 1
85 36 7 -0.1239881194029851 12.95104136514061 2.0509211542498367 0.475938006895386 0 0 1
701 572 9 0.0991558805970149 14.550839252992764 2.2638796736655253 6.415974587670138 0 0 0
726 572 8 -0.1765461194029851 14.649020694208152 3.381587688289156 5.52743240251593 0 0 0
190 36 8 -0.1765461194029851 14.771994810350392 3.6494967117135007 14.0569264235672 0 0 0
613 572 2 0.140938880597015 11.901712468374173 2.3023773408190236 11.196138400720658 0 0 0
145 36 9 0.0991558805970149 13.61938949314811 2.4714708366931157 16.030106349044758 0 0 0
45 36 2 0.140938880597015 12.147282781329649 3.1645240395035863 14.705650461652404 0 0 0
629 572 2 0.140938880597015 14.186643983322996 1.4322916611115166 10.89001042749343 0 0 0
37 36 8 -0.1765461194029851 12.32019831883184 2.8161456118786337 15.690506507518108 0 0 0
605 572 7 -0.1239881194029851 12.353848163451737 2.3901159191252326 10.21271820346637 0 0 0
165 36 9 0.0991558805970149 14.634346051217678 2.497714551129257 14.919352355209009 0 0 0
621 572 7 -0.1239881194029851 13.649788418081954 1.9375090339113565 10.070529728877956 0 0 0
53 36 7 -0.1239881194029851 11.311065494391189 2.5957582647488753 16.69144168151582 0 0 0
685 572 8 -0.1765461194029851 14.326257101222707 1.8819265416297297 8.87747038358205 0 0 0
589 572 7 -0.1239881194029851 11.778443998923672 2.86466078175269 9.008956855483218 0 0 0
61 36 2 0.140938880597015 10.303398390849146 2.880559026044314 16.30763728847675 0 0 0
149 36 8 -0.1765461194029851 13.938226900077224 2.155176601757912 17.31531830724875 0 0 0
597 572 2 0.140938880597015 10.68016659415081 3.0042055026861627 8.92912023276737 0 0 0
169 36 2 0.140938880597015 14.955405121671346 1.9880572619838868 17.54504959376824 0 0 0
102 1 8 -0.1765461194029851 11.993799991597683 6.243688588178496 2.8715204351917367 0 0 0
63 1 2 0.140938880597015 13.883483142730995 6.860650661792384 6.2923074019382526 0 0 0
18 1 9 0.0991558805970149 14.16103935609821 6.710383000627078 1.620212028436957 0 0 0
55 1 7 -0.1239881194029851 13.352420017022833 6.687141513577312 5.335053879581602 0 0 0
34 1 9 0.0991558805970149 13.409401939941256 6.598140100956266 2.8609934035872815 0 0 0
39 1 8 -0.1765461194029851 13.989388548662586 6.91809712964227 4.1404077698337165 0 0 0
95 1 2 0.140938880597015 10.32335294275685 5.531244636531432 4.07440478511863 0 0 0
79 1 2 0.140938880597015 11.370978323957035 6.027642400895475 6.251983614975953 0 0 0
26 1 2 0.140938880597015 13.77540354012188 4.678821273433941 1.0604850341783694 0 0 0
71 1 7 -0.1239881194029851 11.984383548503237 6.238974078029926 5.3252075255552045 0 0 0
22 1 8 -0.1765461194029851 14.320952802064989 5.538586163822981 0.833562683991968 0 0 0
106 1 2 0.140938880597015 11.40555409102011 6.004401057222181 1.9506234736271337 0 0 0
87 1 7 -0.1239881194029851 11.375835239315794 5.964356801930807 4.062731327661206 0 0 0
47 1 2 0.140938880597015 15.0416191917121 7.204011206785994 4.153203578772099 0 0 0
10 1 8 -0.1765461194029851 15.038407158901707 7.743740845540625 1.4026253348545894 0 0 0
735 572 2 0.140938880597015 14.093117611597227 4.256964659237984 5.707678253642101 0 0 0
591 537 7 -0.1239881194029851 13.393980512877008 7.063986826598062 14.511242965331089 0 0 0
575 537 8 -0.1765461194029851 14.111259654305107 7.197659062142227 13.336165358510826 0 0 0
638 537 8 -0.1765461194029851 12.427184631938365 5.933068072024944 12.173652300653533 0 0 0
642 537 2 0.140938880597015 12.055882675597816 5.403684060009943 11.299468653817932 0 0 0
615 537 2 0.140938880597015 11.553037937039353 6.390423785850055 15.496096157780128 0 0 0
570 537 9 0.0991558805970149 13.691978881217103 6.570138732345301 12.094604911525062 0 0 0
607 537 7 -0.1239881194029851 12.111566024535112 6.51472250359014 14.562882665781107 0 0 0
554 537 9 0.0991558805970149 14.442068982936872 6.721257163325014 10.88935416348867 0 0 0
599 537 2 0.140938880597015 13.740875024039577 7.578091190006138 15.406522479786759 0 0 0
623 537 7 -0.1239881194029851 11.690435137832553 5.901516131321593 13.351526460535915 0 0 0
631 537 2 0.140938880597015 10.829704027289406 5.255207439280126 13.398901887657646 0 0 0
558 537 8 -0.1765461194029851 14.63632011551425 5.587424450812181 10.068655594318095 0 0 0
562 537 2 0.140938880597015 14.162506732542507 4.5967858287758 10.328960830456209 0 0 0
583 537 2 0.140938880597015 15.106268657719264 7.579943801654169 13.395212319744676 0 0 0
199 36 2 0.140938880597015 14.205258684970277 4.611552818581021 14.23074389535987 0 0 0
949 840 9 0.0991558805970149 13.213825337691766 12.109339212267628 6.9807866604766335 0 0 0
889 840 7 -0.1239881194029851 11.144408477470565 13.240215561145694 7.777098128174854 0 0 0
953 840 8 -0.1765461194029851 12.116223402859745 12.97767687609854 6.838432865862955 0 0 0
849 840 2 0.140938880597015 14.140284573144733 10.715220490705526 8.390330133720669 0 0 0
969 840 9 0.0991558805970149 14.216687462377267 11.868783815573469 5.827824103238249 0 0 0
321 304 7 -0.1239881194029851 13.444760304644271 10.956281618239423 0.6493559383880995 0 0 1
329 304 2 0.140938880597015 13.715279702833477 10.389723800180123 1.5618178637801745 0 0 1
345 304 2 0.140938880597015 11.424257040406356 11.39242694485484 1.3335168553424097 0 0 1
994 840 8 -0.1765461194029851 14.505147380116993 12.921851789051976 4.880795221052103 0 0 0
337 304 7 -0.1239881194029851 12.105806578649258 11.477444786405831 0.48072865682554355 0 0 1
1002 840 2 0.140938880597015 14.991365565691499 9.941620076089219 6.396939937732879 0 0 0
993 840 8 -0.1765461194029851 14.980087965878113 10.675469692123466 5.650621182667782 0 0 0
841 840 8 -0.1765461194029851 13.342038663459848 11.422461193163127 8.220291788696983 0 0 0
865 840 2 0.140938880597015 12.373203591155585 11.067873919592962 10.124268767962333 0 0 0
433 304 9 0.0991558805970149 14.683324636377884 11.329251074777083 14.877564895854222 0 0 0
413 304 9 0.0991558805970149 13.845658290961502 11.445508102173859 16.172766677759974 0 0 0
417 304 8 -0.1765461194029851 12.628072260040954 12.083246084288927 16.045988538774434 0 0 0
458 304 8 -0.1765461194029851 14.761790273784037 12.323742515247146 13.877946337210094 0 0 0
305 304 8 -0.1765461194029851 14.33763517175263 10.967597244864397 17.444346691406086 0 0 0
881 840 2 0.140938880597015 10.528938246568615 12.519453128794776 9.741990737547232 0 0 0
361 304 2 0.140938880597015 10.797221550632036 12.438722316865913 17.01081562844534 0 0 0
857 840 7 -0.1239881194029851 12.336276302067146 11.61621208379526 9.230682726116491 0 0 0
873 840 7 -0.1239881194029851 11.280438469185121 12.483576721719867 8.99271230859519 0 0 0
437 304 2 0.140938880597015 12.249015563177297 12.449968830798062 15.115905475726928 0 0 0
353 304 7 -0.1239881194029851 11.72397472061296 12.066532200754253 17.133325418164322 0 0 0
550 537 2 0.140938880597015 15.151898116668864 8.75679727173953 11.262601285873904 0 0 0
374 269 2 0.140938880597015 11.92639648918912 14.708383993008844 2.1246132453272097 0 0 0
286 269 9 0.0991558805970149 14.361182529129355 15.82281638307082 1.7723263857874025 0 0 0
347 269 2 0.140938880597015 11.296263784272378 16.06257495004046 6.192297403553088 0 0 0
370 269 8 -0.1765461194029851 12.192527504814906 15.305847291676908 2.99774522679785 0 0 0
302 269 9 0.0991558805970149 13.475714552826261 15.870737915584153 2.9588928787371653 0 0 0
339 269 7 -0.1239881194029851 11.941001382084439 15.898600029347973 5.286176268330213 0 0 0
355 269 7 -0.1239881194029851 11.384791016931178 15.293103016790015 4.133333464551091 0 0 0
323 269 7 -0.1239881194029851 13.175563941646786 16.597110966717313 5.266873682455585 0 0 0
331 269 2 0.140938880597015 13.512349739113063 17.073705253242725 6.194588080742062 0 0 0
307 269 8 -0.1765461194029851 14.01998108364486 16.44087434132142 4.126136656112577 0 0 0
290 269 8 -0.1765461194029851 14.559604876141108 14.619385234126423 1.0540161662813687 0 0 0
363 269 2 0.140938880597015 10.362470644325143 14.850917981121611 4.061068555217858 0 0 0
294 269 2 0.140938880597015 14.095903431874655 13.725922720835838 1.447403413795686 0 0 0
1003 840 2 0.140938880597015 14.055185702986169 13.90200362429493 4.962399035755257 0 0 0
897 840 2 0.140938880597015 10.349104748633067 13.831769832940093 7.509901541052836 0 0 0
973 840 2 0.140938880597015 11.947718627749842 13.585804889068687 5.955689246369551 0 0 0
946 805 2 0.140938880597015 15.08006885606749 13.968301091754153 8.218982352087828 0 0 0
315 269 2 0.140938880597015 15.056617830314162 16.889621916625092 4.13079841785249 0 0 0
906 805 8 -0.1765461194029851 12.419477914350205 15.004220832688766 12.60623502159214 0 0 0
899 805 2 0.140938880597015 10.818784765811879 14.519848178770939 13.974936642588002 0 0 0
830 805 2 0.140938880597015 13.576471443695016 13.976718737550723 10.232068051842376 0 0 0
822 805 9 0.0991558805970149 14.50218217364154 15.696509297266907 11.202247909134735 0 0 0
883 805 2 0.140938880597015 12.043452862195007 15.213829995557557 16.0092040873048 0 0 0
838 805 9 0.0991558805970149 13.726581459855577 15.462796736492338 12.4593651369545 0 0 0
867 805 2 0.140938880597015 14.26674570095264 16.00230842462803 15.783672583299264 0 0 0
875 805 7 -0.1239881194029851 12.435918542887732 15.307472443216788 15.022500034937565 0 0 0
859 805 7 -0.1239881194029851 13.7338228117489 15.787919749653772 14.877551195971614 0 0 0
843 805 8 -0.1765461194029851 14.391461491298342 15.828320325710417 13.655147560679996 0 0 0
826 805 8 -0.1765461194029851 14.373183600799232 14.74226484254123 10.126267906477446 0 0 0
910 805 2 0.140938880597015 11.940749239794293 14.842145455861978 11.708304310723756 0 0 0
891 805 7 -0.1239881194029851 11.809104415605598 14.880813661043245 13.83538288484152 0 0 0
834 805 8 -0.1765461194029851 15.123480473235274 14.767323359240802 8.969758616857261 0 0 0
467 304 2 0.140938880597015 14.235043089745984 13.286402887225568 13.942996532572504 0 0 0
733 572 8 -0.1765461194029851 16.0721530661352 1.0546024153658557 4.911599795331407 0 0 0
115 114 5 -1.000000119402985 18.737715849089764 2.1628062982523826 7.8902925270939654 0 0 0
122 121 13 1.999999880597015 21.70077214070222 2.1118477257983796 8.209020149809355 0 0 0
779 572 12 -0.3899341194029851 19.314114515703032 2.637157603590043 4.120710155703485 0 0 0
797 572 4 0.3380158805970149 20.195099828564327 2.18193960668164 4.313881467310513 0 0 0
789 572 4 0.3380158805970149 19.417147907743495 3.607620099304988 3.7178133089746193 0 0 0
801 572 4 0.3380158805970149 18.848641478393496 2.720950781865275 5.0271399344633405 0 0 0
749 572 2 0.140938880597015 16.647296346472654 0.11617480830762278 4.723151390062363 0 0 0
750 572 6 0.1072968805970149 16.141879576305463 2.1790068258992026 4.08999185155 0 0 0
761 572 10 -0.276051119402985 16.98548289320719 2.294969656874085 2.924403768215265 0 0 0
765 572 1 0.1309038805970149 16.57728259204232 1.6327487329803836 2.0883986603942253 0 0 0
766 572 11 0.07148288059701489 18.443314968511498 1.712848408539308 3.217413288556127 0 0 0
767 572 1 0.1309038805970149 17.071992620904346 3.3700066790328833 2.5525848289221225 0 0 0
777 572 3 0.0879148805970149 18.55475747082715 0.7135103264620182 3.6819365193430307 0 0 0
778 572 3 0.0879148805970149 18.97291339119363 1.6799655654253165 2.275057769947551 0 0 0
110 109 5 -1.000000119402985 21.61109772066426 -0.07959660248781525 5.780655395787679 0 0 0
119 118 5 -1.000000119402985 21.500298402548445 4.185770052325919 1.6926473459625189 0 0 0
736 572 8 -0.1765461194029851 15.44297035594783 3.3544943865722887 4.327977726031881 0 0 0
734 572 2 0.140938880597015 15.265486612550262 0.24368935917115764 6.808393330483598 0 0 0
725 572 8 -0.1765461194029851 15.392387325521424 1.0843717564884574 6.14383586424061 0 0 0
213 36 2 0.140938880597015 16.855223288271468 0.39432279156743333 13.419918801679378 0 0 0
651 650 5 -1.000000119402985 18.56677169645798 2.328610794374171 16.886566568438756 0 0 0
658 657 13 1.999999880597015 21.653316554862666 2.1732471795863892 17.26284863407921 0 0 0
197 36 8 -0.1765461194029851 16.238513340928446 1.249442408642013 13.568429566951945 0 0 0
214 36 6 0.1072968805970149 16.393651495932758 2.3118690328727 12.759543330751487 0 0 0
225 36 10 -0.276051119402985 17.32946152024128 2.2688532764971185 11.550813344187187 0 0 0
229 36 1 0.1309038805970149 16.92331198459542 1.3848226800262047 11.046220523356299 0 0 0
230 36 11 0.07148288059701489 18.745690706584504 1.8474712302439757 11.99626974983623 0 0 0
231 36 1 0.1309038805970149 17.219858258077224 3.054810813049114 10.79734596146702 0 0 0
241 36 3 0.0879148805970149 18.77492510296387 0.8462817151762765 12.39242149772184 0 0 0
242 36 3 0.0879148805970149 19.465711910717246 1.74584877988481 11.19928015279138 0 0 0
243 36 12 -0.3899341194029851 19.343657403960606 2.7584723457568296 13.007467384109361 0 0 0
253 36 4 0.3380158805970149 19.00488066050111 2.5461101815589897 13.95610380646342 0 0 0
261 36 4 0.3380158805970149 19.215209463446257 3.71487131332033 12.78133411264918 0 0 0
265 36 4 0.3380158805970149 20.306648243308825 2.4388687131106312 13.075865148071474 0 0 0
646 645 5 -1.000000119402985 21.56337860419845 0.05372747606670947 14.547362762003711 0 0 0
189 36 8 -0.1765461194029851 15.32406254609208 1.3037957387863253 14.592863079405667 0 0 0
200 36 8 -0.1765461194029851 15.607906696199002 3.49235709506804 12.914014485722777 0 0 0
705 572 2 0.140938880597015 15.362823713913107 1.443201333931078 8.854918077016999 0 0 0
655 654 5 -1.000000119402985 21.756740585678337 4.093092779031158 10.60919319341296 0 0 0
198 36 2 0.140938880597015 15.21090009395361 0.4241861295616527 15.268358807255915 0 0 0
2 1 8 -0.1765461194029851 15.86847560775899 7.76667551191354 0.3190617612597504 0 0 0
6 1 2 0.140938880597015 16.538902552874244 8.59804239561466 0.13898410439802464 0 0 0
109 108 5 -1.000000119402985 21.60540686497773 8.31823523714584 1.1320584291443838 0 0 0
678 537 2 0.140938880597015 15.689990780135254 4.688393383556669 8.397603018833818 0 0 0
113 112 5 -1.000000119402985 18.466462020077284 6.493768280532016 3.722364881419094 0 0 0
712 537 3 0.0879148805970149 19.25046080809548 6.912969733525204 7.009814673846622 0 0 0
121 120 13 1.999999880597015 21.740518037169725 6.645052087848717 3.714966312456069 0 0 0
720 537 1 0.1309038805970149 16.997993877045367 5.957582738772427 6.778893487365792 0 0 0
719 537 1 0.1309038805970149 17.098719895261794 7.809562747988881 6.9503512427813146 0 0 0
255 1 4 0.3380158805970149 19.984930975146476 6.3241727392500895 0.07231344536626935 0 0 0
120 119 5 -1.000000119402985 21.664713559423635 4.605401732559573 6.06290277126335 0 0 0
694 537 11 0.07148288059701489 18.56574599008876 6.872821668425491 7.882926204504011 0 0 0
698 537 10 -0.276051119402985 17.12260451149985 6.832548020087038 7.500099819104262 0 0 0
130 1 4 0.3380158805970149 18.404300243517014 5.857758788155634 0.5169697414189512 0 0 0
666 537 4 0.3380158805970149 19.4998757754684 5.008325998352091 8.19795728076094 0 0 0
30 1 8 -0.1765461194029851 15.322140367846984 5.497392143827071 -0.1255456858235052 0 0 0
711 537 3 0.0879148805970149 18.66846927147387 7.785570981945236 8.438737302149901 0 0 0
14 1 2 0.140938880597015 15.236709621091894 8.570814249235726 2.1027046664113396 0 0 0
751 572 2 0.140938880597015 15.50161068572686 4.236744575355385 3.7265893510398276 0 0 0
674 537 6 0.1072968805970149 16.185888119552562 6.764140346746499 8.640154198016722 0 0 0
158 1 11 0.07148288059701489 18.364079489166897 7.135301314583538 16.710028785124145 0 0 -1
162 1 10 -0.276051119402985 16.964844966675084 6.772742692462561 16.158973111227397 0 0 -1
657 656 13 1.999999880597015 21.5299400621522 6.715917478988133 12.656002366264843 0 0 0
176 1 3 0.0879148805970149 19.103126435833705 7.352933506168878 15.957602518659428 0 0 -1
183 1 1 0.1309038805970149 16.68168280060028 7.695309503262899 15.556508442410424 0 0 -1
184 1 1 0.1309038805970149 16.99090543083294 5.935143599605423 15.469273098509692 0 0 -1
791 537 4 0.3380158805970149 18.285257782913398 5.422958403650862 9.388377365601304 0 0 0
215 36 2 0.140938880597015 15.773753637041619 4.334606261725401 12.26672040470887 0 0 0
656 655 5 -1.000000119402985 21.504012049969724 4.585748063013561 15.07136901090553 0 0 0
649 648 5 -1.000000119402985 18.6099112378584 6.5612946424953 12.353478290795588 0 0 0
175 1 3 0.0879148805970149 18.353855544363295 8.113578689232236 17.23179484535325 0 0 -1
538 537 8 -0.1765461194029851 16.01679828888321 7.927850412675889 9.4449273245818 0 0 0
138 1 6 0.1072968805970149 16.010503788578788 6.669123284343322 17.339885114801724 0 0 -1
670 537 4 0.3380158805970149 19.775057888899543 6.187469519215381 9.376258639057502 0 0 0
645 644 5 -1.000000119402985 21.735971205677423 8.308731172919396 9.978355414140571 0 0 0
662 537 12 -0.3899341194029851 19.06314581293192 5.793374491244879 8.733357521845779 0 0 0
566 537 8 -0.1765461194029851 15.483527844447014 5.651439591447979 8.916385783648796 0 0 0
134 1 4 0.3380158805970149 19.171171918717228 5.2738468969960905 16.92201452366443 0 0 -1
142 1 2 0.140938880597015 15.418923318504376 4.579639755572122 17.172309373573164 0 0 -1
546 537 8 -0.1765461194029851 15.246449735516787 7.873892294222362 10.61898797227286 0 0 0
126 1 12 -0.3899341194029851 19.00874178281176 6.0611314239511085 17.540918667591804 0 0 -1
390 389 13 1.999999880597015 21.675794302874447 10.971732012409914 8.312056837587495 0 0 0
383 382 5 -1.000000119402985 18.62634047186172 11.300206641417766 7.859299058631868 0 0 0
1047 840 12 -0.3899341194029851 19.051421792591007 11.797247662483022 4.251877208537958 0 0 0
1017 840 2 0.140938880597015 16.406789254041556 9.485974407726827 4.528383522578185 0 0 0
378 377 5 -1.000000119402985 21.621941238176035 9.008392992333432 5.611204854456786 0 0 0
1057 840 4 0.3380158805970149 18.418020093015617 12.210003694429414 4.905204697485415 0 0 0
1069 840 4 0.3380158805970149 19.70849364775009 11.40764798085639 4.881537427638484 0 0 0
1065 840 4 0.3380158805970149 19.601917013783858 12.602612402365398 3.8690480826421014 0 0 0
1018 840 6 0.1072968805970149 16.119169472106993 11.397181874282694 3.598107941695464 0 0 0
1029 840 10 -0.276051119402985 17.199106703378423 11.203550213942806 2.546436103501246 0 0 0
1033 840 1 0.1309038805970149 16.927174837425238 10.441896486966668 1.7086991303833345 0 0 0
1034 840 11 0.07148288059701489 18.540247020954364 10.838663091962758 3.2193927714371484 0 0 0
1035 840 1 0.1309038805970149 17.408532122469815 12.180880938491088 2.0663568915112953 0 0 0
1045 840 3 0.0879148805970149 18.478826811711162 9.91450917580069 3.6988957550013577 0 0 0
1046 840 3 0.0879148805970149 19.319604056066943 10.667941686501049 2.4991782130110702 0 0 0
1001 840 8 -0.1765461194029851 15.893052479835783 10.43267052366774 4.611762951995085 0 0 0
387 386 5 -1.000000119402985 21.64044047541243 12.851844461326131 1.680361039563992 0 0 0
1004 840 8 -0.1765461194029851 15.432779397202198 12.628691736341398 3.802772028666538 0 0 0
465 304 8 -0.1765461194029851 16.287927707236104 10.006296766952543 13.649409428086196 0 0 0
919 918 5 -1.000000119402985 18.65295149799994 11.146006091553412 16.683701854980743 0 0 0
914 913 5 -1.000000119402985 21.613000044720984 9.092440057185105 14.540718869265284 0 0 0
926 925 13 1.999999880597015 21.655793688914482 10.676510425819464 17.127668387963034 0 0 0
482 304 6 0.1072968805970149 16.436958271892795 11.034586973293539 12.726895950481218 0 0 0
493 304 10 -0.276051119402985 17.432473536203528 10.760307410127464 11.625209658269702 0 0 0
497 304 1 0.1309038805970149 17.229849346752037 9.927533656518357 10.934938825328075 0 0 0
498 304 11 0.07148288059701489 18.824805307311813 10.704137977128266 12.175602841679632 0 0 0
499 304 1 0.1309038805970149 17.570993287300034 11.591772996919104 10.931085144601644 0 0 0
509 304 3 0.0879148805970149 18.97038938802215 9.67468111555819 12.49997638203747 0 0 0
510 304 3 0.0879148805970149 19.494151187094108 10.752583823950278 11.331857445708332 0 0 0
511 304 12 -0.3899341194029851 19.106793776868543 11.702898861742085 13.229709752882918 0 0 0
521 304 4 0.3380158805970149 19.790322207899575 11.418220534912118 13.887126327900559 0 0 0
529 304 4 0.3380158805970149 18.26314615220536 11.824879589163741 13.834591342452864 0 0 0
533 304 4 0.3380158805970149 19.387994550316954 12.602088871001275 12.840141917686019 0 0 0
481 304 2 0.140938880597015 16.93532367675638 9.138216582422057 13.562866575707918 0 0 0
468 304 8 -0.1765461194029851 15.693199190584384 12.249236510413338 12.850420806928087 0 0 0
923 922 5 -1.000000119402985 21.58858619073344 13.219571117636656 10.788585129162838 0 0 0
483 304 2 0.140938880597015 15.906838938743357 13.05857558560762 12.17337661865676 0 0 0
313 304 2 0.140938880597015 15.359616300455466 10.55462673050851 17.574881258980735 0 0 0
466 304 2 0.140938880597015 15.426510458044099 9.349271446766469 15.398047479362374 0 0 0
457 304 8 -0.1765461194029851 15.506525554896847 10.208459995879641 14.742726288750626 0 0 0
542 537 2 0.140938880597015 16.653105437427 8.828535530041444 9.197283230713808 0 0 0
987 805 1 0.1309038805970149 16.92382968356709 16.498615455912393 6.831274687038795 0 0 0
270 269 8 -0.1765461194029851 16.03655337330713 16.83681616042088 0.3084117325187049 0 0 0
938 805 4 0.3380158805970149 19.370936168271967 14.080238845928587 8.35361581488421 0 0 0
388 387 5 -1.000000119402985 21.666550259606556 13.606972233422631 6.326306340141295 0 0 0
381 380 5 -1.000000119402985 18.599867022124737 15.284586056870898 3.4458829510847058 0 0 0
278 269 8 -0.1765461194029851 15.207126614922336 16.892467837968596 1.3999235158789554 0 0 0
389 388 13 1.999999880597015 21.560871958587313 15.623575507606635 3.910445857624684 0 0 0
980 805 3 0.0879148805970149 19.206532945886615 16.017859252888396 7.106251200406772 0 0 0
377 376 5 -1.000000119402985 21.601058300205278 17.61378611400186 1.3212241703171437 0 0 0
274 269 2 0.140938880597015 16.58625824741542 17.741411399823967 0.05360896421217093 0 0 0
988 805 1 0.1309038805970149 16.854390339412195 14.77230604710525 6.940636155829489 0 0 0
962 805 11 0.07148288059701489 18.46552818136491 15.876295891175635 7.977075769285236 0 0 0
966 805 10 -0.276051119402985 17.034361144021716 15.6570051960733 7.541639848782202 0 0 0
402 269 4 0.3380158805970149 19.18233045829129 15.252122432948292 0.6854563163061279 0 0 0
298 269 8 -0.1765461194029851 15.441233889817605 14.467084960287995 -0.007963649474724893 0 0 0
1019 840 2 0.140938880597015 15.75068115955939 13.50416887584332 3.181504093279861 0 0 0
979 805 3 0.0879148805970149 18.420480350976945 16.89434164418408 8.447518109379391 0 0 0
282 269 2 0.140938880597015 15.294318754636905 17.736452151163874 2.064710605210359 0 0 0
398 269 4 0.3380158805970149 20.516016076250537 15.486237487063264 -0.2499630877460497 0 0 0
426 269 11 0.07148288059701489 18.666120994499238 15.947535739920623 16.65723552243657 0 0 -1
430 269 10 -0.276051119402985 17.23090675201675 15.426491484620922 16.333024544614844 0 0 -1
934 805 4 0.3380158805970149 18.546109390183055 14.551223682851381 9.710732824005436 0 0 0
444 269 3 0.0879148805970149 19.265536083435705 15.926603897475777 15.75265870482894 0 0 -1
451 269 1 0.1309038805970149 16.80107777448081 16.04686326418818 15.522417986904628 0 0 -1
452 269 1 0.1309038805970149 17.32700437049784 14.475508512378086 15.750513184741637 0 0 -1
406 269 6 0.1072968805970149 16.241169513222314 15.578179235277869 17.485851696200942 0 0 -1
443 269 3 0.0879148805970149 18.611200562206463 16.920829245690996 17.076548066428526 0 0 -1
925 924 13 1.999999880597015 21.535818222978786 15.743739917853992 12.644681561997382 0 0 0
913 912 5 -1.000000119402985 21.728405008353036 17.576886430653786 10.011869386420129 0 0 0
523 269 4 0.3380158805970149 19.44751850025789 14.19296622994202 17.294019462197753 0 0 -1
924 923 5 -1.000000119402985 21.73021160155792 13.655321482572864 15.11239391386962 0 0 0
917 916 5 -1.000000119402985 18.5856348452078 15.474069998942031 12.506927720646134 0 0 0
806 805 8 -0.1765461194029851 16.085335783495765 16.7977024442263 9.680047209043261 0 0 0
410 269 2 0.140938880597015 15.52776920746427 13.543670510818492 17.313890986644278 0 0 -1
1059 805 4 0.3380158805970149 19.99062167621374 15.26558517667418 9.3013670845148 0 0 0
810 805 2 0.140938880597015 16.792661274182944 17.608647134220863 9.688254051066664 0 0 0
942 805 6 0.1072968805970149 16.040558006438253 15.762128392378008 8.705190556366444 0 0 0
930 805 12 -0.3899341194029851 19.10846479363026 14.848051995189019 8.935812549520092 0 0 0
851 805 2 0.140938880597015 15.380994592338034 16.240196662661223 13.670788676964714 0 0 0
818 805 2 0.140938880597015 15.284335672106172 17.629484139437558 11.586676120892845 0 0 0
814 805 8 -0.1765461194029851 15.320550979714234 16.791618835644943 10.882485792904443 0 0 0
394 269 12 -0.3899341194029851 19.516597073320384 15.156124869796368 17.59351160711757 0 0 -1
770 575 1 0.1309038805970149 26.337690988863645 1.5031097492108856 2.034232089667392 0 0 0
782 575 12 -0.3899341194029851 24.22417064537801 2.7109166531746087 4.378538229314729 0 0 0
752 575 2 0.140938880597015 26.681600934476265 0.21877042596830948 4.652210865611418 0 0 0
738 575 2 0.140938880597015 28.438717800120845 0.3784357144919178 6.577239014919042 0 0 0
798 575 4 0.3380158805970149 23.703679812794284 2.1713322411194014 5.11963341057388 0 0 0
114 113 5 -1.000000119402985 24.678489977680748 2.414099755810059 7.898430637291012 0 0 0
781 575 3 0.0879148805970149 23.882626748942045 1.7632264522460617 2.5304725865023907 0 0 0
792 575 4 0.3380158805970149 23.673403577297567 3.488788242356744 4.097334853609633 0 0 0
702 575 9 0.0991558805970149 28.83792933213325 2.413002598514054 6.1909156660068545 0 0 0
727 575 8 -0.1765461194029851 28.214987170786713 1.1792918722724526 5.855879910650565 0 0 0
728 575 8 -0.1765461194029851 28.506522000636256 3.565724502929984 5.455035700220224 0 0 0
737 575 8 -0.1765461194029851 27.215327802549044 1.0937828987181186 4.902212525838548 0 0 0
802 575 4 0.3380158805970149 25.010558639287517 3.221690570497147 4.833845798032836 0 0 0
739 575 8 -0.1765461194029851 27.61114718603426 3.4117310948042885 4.412176533660505 0 0 0
780 575 3 0.0879148805970149 24.638262761659977 0.6462909082983873 3.7256143824680903 0 0 0
753 575 6 0.1072968805970149 27.07337379170335 2.1788391948654695 4.015735037371662 0 0 0
762 575 10 -0.276051119402985 26.064904807533843 2.156745699577362 2.8691911406320783 0 0 0
768 575 11 0.07148288059701489 24.64610512138825 1.7180156133092694 3.3390340058781205 0 0 0
769 575 1 0.1309038805970149 25.990065395596783 3.154305665851836 2.4995847010378673 0 0 0
682 575 9 0.0991558805970149 29.85327624678722 2.5554088375344426 7.334688145665266 0 0 0
56 39 7 -0.1239881194029851 29.988002967042974 1.8024937084812722 0.6514286894209909 0 0 1
584 575 2 0.140938880597015 29.12021281350752 0.9506937303884524 8.538278000628162 0 0 0
576 575 8 -0.1765461194029851 29.78226049357398 1.7154463348557962 8.499360004485608 0 0 0
64 39 2 0.140938880597015 29.645381689387133 1.2789018176572333 1.5350007592798607 0 0 1
754 575 2 0.140938880597015 27.28740061064586 4.223263131254786 3.834722018394015 0 0 0
273 268 2 0.140938880597015 26.546108087775863 -0.2052638914988414 0.553416851972564 0 1 0
650 649 5 -1.000000119402985 24.81215885635773 2.410927124065128 16.964953445508332 0 0 0
202 39 2 0.140938880597015 28.411120792286052 0.000715735308286225 15.092071361163246 0 0 0
166 39 9 0.0991558805970149 28.90076967080929 2.1234592131282755 14.917921457821041 0 0 0
191 39 8 -0.1765461194029851 28.33797559032908 0.9002920457206538 14.500383727045708 0 0 0
192 39 8 -0.1765461194029851 28.793102630933312 3.2455680270004583 14.04187019272797 0 0 0
201 39 8 -0.1765461194029851 27.488171533754088 0.8739626612717173 13.383631124274919 0 0 0
216 39 2 0.140938880597015 27.03722056713689 -0.047894001710897666 13.037370538048403 0 0 0
203 39 8 -0.1765461194029851 27.90733592306233 3.2242489475641447 12.946064770678802 0 0 0