ITEM: TIMESTEP
10000
ITEM: NUMBER OF ATOMS
1040
ITEM: BOX BOUNDS pp pp pp
-3.1000000000000001e+00 2.1700000000000003e+01
-6.9095259441535461e+01 8.1495259441535467e+01
-3.1000000000000001e+00 2.1700000000000003e+01
ITEM: ATOMS id type x y z
1 13 0.195503 -0.00884378 7.00292
2 5 3.2487 0.0944812 7.17521
3 5 0.0674359 -3.131 7.20617
4 5 0.159457 -0.0113974 10.1555
5 12 3.55459 -2.2624 9.78929
6 6 4.19194 -7.11195 9.18775
7 4 3.4348 -2.48903 8.78427
8 4 4.57811 -2.21371 9.92872
9 4 3.18278 -1.30871 9.94159
10 10 2.89063 -3.2968 10.6727
11 3 3.132 -3.06985 11.7187
12 3 1.81031 -3.19362 10.5312
13 7 4.69569 -5.0174 10.3267
14 6 5.1213 -6.23399 9.77315
15 8 3.33441 -4.68844 10.3
16 7 2.40391 -5.56932 9.72995
17 6 2.82658 -6.77455 9.15624
18 1 5.43144 -4.28225 10.6398
19 1 6.18814 -6.43321 9.71165
20 1 1.36376 -5.25688 9.64107
21 1 4.54406 -8.01946 8.70692
22 1 2.10826 -7.41674 8.65492
23 13 0.220572 -0.153376 13.2085
24 5 3.31242 0.0784963 13.1028
25 5 -0.142528 -3.14489 13.2708
26 5 -0.0202387 -0.0302169 16.3304
27 12 3.419 -2.18636 15.8451
28 6 3.91577 -7.23805 15.6121
29 4 3.19866 -2.34268 14.8476
30 4 4.45321 -2.22198 15.9033
31 4 3.15197 -1.2136 16.0887
32 10 2.75071 -3.21856 16.7265
33 3 3.05715 -3.01268 17.7588
34 3 1.66558 -3.07354 16.6599
35 7 4.50634 -4.99475 16.3545
36 6 4.88969 -6.29168 15.9847
37 8 3.15292 -4.63108 16.3335
38 7 2.19449 -5.56053 15.8952
39 6 2.56207 -6.87663 15.5661
40 1 5.26959 -4.25933 16.5939
41 1 5.94746 -6.54312 15.9692
42 1 1.1566 -5.25383 15.8053
43 1 4.22094 -8.23576 15.3161
44 1 1.80808 -7.58068 15.2242
45 13 0.292711 0.126168 19.4051
46 5 3.32091 0.165825 19.0789
47 5 0.310665 -2.96951 19.8584
48 5 0.712833 0.166431 -2.16792
49 12 3.51884 -2.32893 -2.99275
50 6 4.58408 -6.98471 -1.20309
51 4 3.22542 -2.70991 20.8919
52 4 4.54933 -2.36408 -2.97287
53 4 3.25455 -1.32972 -3.00761
54 10 2.91544 -3.06558 -1.80156
55 3 3.13586 -2.47302 -0.904034
56 3 1.82761 -3.07886 -1.90854
57 7 3.64984 -4.93096 -0.316421
58 6 4.25414 -6.17591 -0.102126
59 8 3.43588 -4.46892 -1.61541
60 7 3.71279 -5.29773 -2.71482
61 6 4.27408 -6.56166 -2.50695
62 1 3.42009 -4.28854 0.53377
63 1 4.50736 -6.47617 0.909332
64 1 3.51846 -4.94472 21.0727
65 1 5.08478 -7.93392 -1.04608
66 1 4.49948 -7.18842 21.436
67 13 0.308805 0.234181 0.947822
68 5 3.4568 0.299161 1.17086
69 5 0.18372 -2.92121 1.09762
70 5 -0.0502804 0.0861692 4.02692
71 12 3.8398 -2.24979 3.76755
72 6 3.62055 -7.36002 3.40477
73 4 3.6784 -2.25778 2.74555
74 4 4.84566 -2.45248 3.90064
75 4 3.71008 -1.27106 4.08198
76 10 2.95661 -3.24712 4.50074
77 3 3.14017 -3.11788 5.57436
78 3 1.91404 -2.96698 4.30823
79 7 4.49195 -5.21758 4.1194
80 6 4.71194 -6.54264 3.72855
81 8 3.19097 -4.69492 4.13034
82 7 2.10481 -5.49782 3.76499
83 6 2.31425 -6.8403 3.39686
84 1 5.33163 -4.56919 4.36142
85 1 5.72946 -6.91803 3.68037
86 1 1.11269 -5.05803 3.72242
87 1 3.79638 -8.38541 3.09991
88 1 1.47472 -7.45164 3.07712
89 13 0.168666 6.11758 6.82126
90 5 3.24458 6.25587 7.08543
91 5 0.297686 3.12812 7.0685
92 5 0.3302 6.33535 10.1705
93 11 2.89762 2.66883 9.61155
94 9 3.72253 3.56953 10.5242
95 2 3.52843 4.61181 10.2544
96 2 4.78878 3.35282 10.3963
97 2 3.44196 3.38692 11.5665
98 4 3.11524 2.82484 8.60743
99 4 1.87942 2.82718 9.72137
100 4 3.06278 1.66483 9.80451
101 13 0.402917 5.9785 13.1926
102 5 3.45034 6.32748 13.2628
103 5 0.164016 3.02093 13.0453
104 5 0.427079 6.09515 16.2054
105 11 3.92526 3.66663 16.8546
106 9 3.0463 2.8524 15.914
107 2 3.29554 3.09286 14.8736
108 2 1.99024 3.06836 16.1102
109 2 3.21892 1.7882 16.0931
110 4 3.7873 4.68658 16.7361
111 4 4.93648 3.4807 16.7158
112 4 3.72036 3.44993 17.8483
113 13 0.287401 6.30277 19.3203
114 5 3.37756 6.32333 19.267
115 5 0.187612 3.162 19.3873
116 5 0.129392 6.45689 -2.26917
117 11 3.6951 2.75666 -1.57584
118 9 3.00597 3.51681 -2.6976
119 2 3.22755 3.04989 21.1361
120 2 3.34905 4.55542 -2.69164
121 2 1.92621 3.4992 -2.51564
122 4 4.72295 2.71643 -1.70115
123 4 3.35384 1.78003 -1.51629
124 4 3.51175 3.1827 -0.647996
125 13 0.405667 6.32155 0.737621
126 5 3.53817 6.19875 0.529177
127 5 0.479783 3.18966 0.834997
128 5 0.394881 6.34506 3.78733
129 11 3.78204 3.60856 3.21828
130 9 2.98811 2.90669 4.31102
131 2 3.29675 3.28287 5.29123
132 2 3.17621 1.8309 4.26972
133 2 1.92244 3.09494 4.15269
134 4 4.79789 3.41885 3.29551
135 4 3.67545 4.63881 3.25277
136 4 3.49247 3.31136 2.26801
137 13 0.44 12.2681 6.91774
138 5 3.52683 12.2659 6.83923
139 5 0.166885 9.22408 6.9875
140 5 0.551249 12.1949 10.0464
141 5 0.696431 15.4471 7.23782
142 11 2.87667 8.82757 9.54954
143 9 3.80598 9.67463 10.4059
144 2 4.84529 9.42595 10.1903
145 2 3.59908 9.48732 11.465
146 2 3.65156 10.7309 10.1775
147 4 2.97847 7.81465 9.74576
148 4 3.05087 8.94698 8.53446
149 4 1.87753 9.06032 9.70002
150 12 3.28831 14.6787 9.87198
151 6 3.86832 19.7886 9.6056
152 4 3.6215 14.6911 8.89061
153 4 2.28258 14.9231 9.83382
154 4 3.33666 13.6944 10.1918
155 10 4.08673 15.6254 10.7698
156 3 3.77814 15.4975 11.8089
157 3 5.13345 15.3121 10.7018
158 7 2.7426 17.696 10.135
159 6 2.68061 19.049 9.75766
160 8 3.98062 17.0903 10.3996
161 7 5.15308 17.8373 10.2646
162 6 5.10955 19.1769 9.85484
163 1 1.83278 17.1074 10.2286
164 1 1.7126 19.4951 9.55146
165 1 6.11353 17.3557 10.4502
166 1 3.82845 20.8215 9.27737
167 1 6.04259 19.7099 9.7061
168 13 0.614391 12.4908 13.0548
169 5 3.57088 12.4522 13.2058
170 5 0.332114 9.33502 13.2333
171 5 0.480245 12.4013 16.1782
172 5 0.707114 15.5917 13.19
173 11 2.78968 8.75731 15.9998
174 9 3.81004 9.69563 16.6241
175 2 3.73091 9.60619 17.711
176 2 3.61365 10.7263 16.3146
177 2 4.82048 9.4163 16.3151
178 4 1.82069 8.9731 16.2964
179 4 2.96819 7.77222 16.2673
180 4 2.80158 8.79346 14.9649
181 12 3.43675 14.7902 15.8571
182 6 2.46973 19.8096 15.6772
183 4 3.79324 14.9655 14.899
184 4 2.40845 14.7277 15.7703
185 4 3.77722 13.8471 16.125
186 10 3.88028 15.875 16.8232
187 3 3.50284 15.6398 17.8259
188 3 4.97486 15.8406 16.8635
189 7 2.02559 17.5684 16.4888
190 6 1.56102 18.8338 16.1127
191 8 3.39436 17.2539 16.4114
192 7 4.29633 18.2114 15.9201
193 6 3.83665 19.496 15.5702
194 1 1.3135 16.7991 16.7744
195 1 0.492998 19.0355 16.1396
196 1 5.34197 17.9417 15.7893
197 1 2.10337 20.787 15.3812
198 1 4.53586 20.2272 15.1762
199 13 0.559555 12.4227 19.262
200 5 3.54865 12.6085 19.2506
201 5 0.508035 9.29954 19.0784
202 5 0.66681 12.3972 -2.25649
203 5 0.516657 15.6533 19.7796
204 11 3.83809 9.92841 -1.67871
205 9 3.18401 9.03468 -2.72165
206 2 2.10004 9.17527 -2.65861
207 2 3.42069 7.98638 -2.51896
208 2 3.51965 9.31219 21.0743
209 4 3.48438 9.73983 -0.722027
210 4 3.65975 10.9329 -1.86303
211 4 4.86806 9.82063 -1.65976
212 12 3.50012 14.9961 -2.81432
213 6 2.89682 19.8969 21.625
214 4 3.82009 15.1711 21.0149
215 4 2.46652 15.0206 -2.84773
216 4 3.75399 14.0153 -2.6124
217 10 4.09358 15.9929 -1.82536
218 3 3.79649 15.7169 -0.80344
219 3 5.18132 15.8841 -1.90195
220 7 2.32272 17.7409 -2.24011
221 6 1.92369 18.9816 -2.74887
222 8 3.68463 17.407 -2.17021
223 7 4.65275 18.3315 -2.57465
224 6 4.26298 19.5887 -3.0649
225 1 1.57278 16.9961 -1.97122
226 1 0.8665 19.1901 -2.8851
227 1 5.70353 18.0453 -2.55535
228 1 2.59324 20.8425 21.1894
229 1 5.01384 20.2896 21.3811
230 13 0.499022 12.5394 0.787763
231 5 3.70047 12.6379 1.00054
232 5 0.773023 9.48036 0.909944
233 5 0.567179 12.2793 3.92197
234 5 0.599452 15.5665 1.19723
235 11 4.12142 10.0789 3.59968
236 9 3.1897 9.02591 4.18624
237 2 3.29167 9.03721 5.27326
238 2 3.43012 8.03734 3.78174
239 2 2.1537 9.26792 3.95239
240 4 5.1122 9.9222 3.86552
241 4 3.87518 11.0321 3.92089
242 4 4.08286 10.0911 2.5663
243 12 3.03723 14.8585 3.88786
244 6 3.10857 20.0129 3.79942
245 4 3.02478 14.9552 2.85845
246 4 2.05427 15.0042 4.18495
247 4 3.25234 13.8658 4.08549
248 10 3.99958 15.8249 4.57219
249 3 3.8993 15.6363 5.64638
250 3 5.02602 15.568 4.28166
251 7 3.54604 18.185 5.35661
252 6 3.25082 19.5408 5.11357
253 8 3.71971 17.2964 4.28806
254 7 3.60975 17.7762 2.97273
255 6 3.28438 19.1245 2.72712
256 1 3.62085 17.8111 6.38016
257 1 3.0973 20.2098 5.95597
258 1 3.74237 17.0877 2.13712
259 1 2.85871 21.0541 3.61763
260 1 3.17406 19.464 1.70058
261 13 6.46371 0.158512 7.11139
262 5 9.54166 0.283783 7.21961
263 5 6.19408 -2.94702 7.25055
264 5 6.34643 0.229847 10.146
265 12 9.95697 -2.1902 9.87084
266 6 9.40264 -7.24562 9.37348
267 4 10.0187 -2.29942 8.84442
268 4 10.9071 -2.35759 10.2466
269 4 9.74551 -1.1904 10.0462
270 10 8.91981 -3.10461 10.5095
271 3 9.03173 -2.99002 11.5889
272 3 7.92398 -2.74466 10.2391
273 7 8.9579 -5.56257 11.0826
274 6 9.12451 -6.91286 10.7145
275 8 9.0656 -4.55536 10.1178
276 7 9.28549 -4.89452 8.77502
277 6 9.45239 -6.23036 8.40105
278 1 8.73477 -5.28884 12.1133
279 1 9.04111 -7.69033 11.468
280 1 9.34087 -4.11062 8.01958
281 1 9.54095 -8.28312 9.0851
282 1 9.64518 -6.45701 7.35619
283 13 6.39573 0.22665 13.2152
284 5 9.45895 0.149113 12.8869
285 5 6.33174 -2.86196 13.4607
286 5 6.41864 0.152906 16.2856
287 12 9.53472 -2.19112 15.7389
288 6 10.5231 -7.21351 15.9328
289 4 9.06429 -2.28168 14.8206
290 4 10.5537 -2.27143 15.5727
291 4 9.35393 -1.22163 16.0634
292 10 9.03324 -3.23516 16.7341
293 3 9.36215 -2.93717 17.7368
294 3 7.94071 -3.17753 16.7143
295 7 9.80424 -5.51419 17.515
296 6 10.3232 -6.79405 17.2552
297 8 9.48566 -4.65642 16.4492
298 7 9.66097 -5.09033 15.1269
299 6 10.2074 -6.3558 14.8647
300 1 9.70738 -5.14914 18.5403
301 1 10.6075 -7.42944 18.089
302 1 9.4221 -4.42629 14.2963
303 1 10.9661 -8.18477 15.7383
304 1 10.404 -6.64109 13.8348
305 13 6.38542 0.0413032 19.3937
306 5 9.40718 -0.0412142 19.4636
307 5 6.23183 -3.1093 19.5401
308 5 6.23734 -0.000498127 -2.20223
309 12 9.69912 -2.17683 -2.4392
310 6 8.9348 -6.96063 21.2382
311 4 9.53782 -2.34178 21.3495
312 4 10.7221 -2.26868 -2.29764
313 4 9.46264 -1.18451 -2.24736
314 10 8.89803 -3.15377 -1.57435
315 3 9.22908 -3.06598 -0.535665
316 3 7.85813 -2.83097 -1.61719
317 7 10.1631 -5.21614 -2.38429
318 6 10.157 -6.38104 21.6291
319 8 8.94532 -4.58601 -2.0702
320 7 7.73468 -5.20947 -2.40767
321 6 7.71913 -6.39638 21.6517
322 1 11.1 -4.70896 -2.15782
323 1 11.0991 -6.78438 21.2696
324 1 6.79851 -4.69406 -2.19627
325 1 8.92514 -7.82747 20.5864
326 1 6.77701 -6.79938 21.2996
327 13 6.47942 0.18131 0.86453
328 5 9.47305 0.37709 0.595951
329 5 6.37021 -2.82625 1.3713
330 5 6.54264 0.161062 4.11579
331 12 9.7227 -2.25959 3.13612
332 6 10.1048 -7.25129 4.57711
333 4 9.34865 -2.62344 2.24269
334 4 10.7514 -2.27379 3.06321
335 4 9.44874 -1.26117 3.17481
336 10 9.21473 -3.02074 4.35507
337 3 9.62505 -2.542 5.25025
338 3 8.12946 -2.87752 4.39582
339 7 10.834 -4.96513 4.17074
340 6 11.13 -6.33127 4.28575
341 8 9.52287 -4.50831 4.37529
342 7 8.50037 -5.42928 4.64712
343 6 8.78106 -6.80164 4.74201
344 1 11.6248 -4.23762 3.9878
345 1 12.156 -6.67034 4.1742
346 1 7.49301 -5.05423 4.81359
347 1 10.337 -8.30705 4.67833
348 1 7.98499 -7.5018 4.97223
349 13 6.29555 6.22962 6.97277
350 5 9.51561 6.45162 7.00551
351 5 6.20631 3.23058 7.12852
352 5 6.37282 6.48358 10.1051
353 11 10.1315 2.77688 10.549
354 9 9.16769 3.67924 9.79711
355 2 9.36023 4.72166 10.0703
356 2 8.13613 3.41185 10.0613
357 2 9.3179 3.53452 8.7222
358 4 10.0216 2.86324 11.5762
359 4 11.126 2.98563 10.3417
360 4 9.9756 1.7796 10.3131
361 13 6.47106 6.32526 13.1974
362 5 9.71321 6.25832 13.2965
363 5 6.64548 3.30916 13.3032
364 5 6.42783 6.32766 16.4245
365 11 10.1494 3.93485 16.0255
366 9 9.19091 2.9813 16.7183
367 2 9.44153 1.94882 16.4558
368 2 8.16372 3.19816 16.4062
369 2 9.28262 3.10653 17.8006
370 4 10.1207 3.83438 14.9959
371 4 11.1326 3.77195 16.307
372 4 9.94728 4.93131 16.2293
373 13 6.4596 6.25698 19.4999
374 5 9.68813 6.51918 19.1458
375 5 6.33076 3.14211 19.4269
376 5 6.82141 6.21705 -2.3384
377 11 10.0116 3.62055 -1.60097
378 9 9.21276 2.85217 -2.64778
379 2 8.14222 2.98249 -2.46143
380 2 9.44661 1.79065 -2.54946
381 2 9.45557 3.19655 21.1391
382 4 9.82312 3.26737 -0.644388
383 4 9.78867 4.63265 -1.59332
384 4 11.035 3.53335 -1.74469
385 13 6.5772 6.39823 0.767355
386 5 9.70504 6.37397 0.923565
387 5 6.50709 3.25497 0.76163
388 5 6.31238 6.12935 3.83663
389 11 10.0537 3.96531 3.54783
390 9 9.14632 3.02035 4.30899
391 2 9.22198 3.23096 5.38109
392 2 9.45666 1.98863 4.11126
393 2 8.11165 3.16706 3.98555
394 4 11.056 3.82466 3.77988
395 4 9.83449 4.96184 3.73519
396 4 9.97054 3.82792 2.5262
397 13 6.52784 12.5366 7.01492
398 5 9.65152 12.3181 7.10441
399 5 6.36346 9.33046 6.85549
400 5 6.72361 12.29 10.0782
401 5 6.71699 15.5454 7.48637
402 11 8.89724 9.1009 9.48494
403 9 10.0299 9.5716 10.386
404 2 9.8395 9.2736 11.4245
405 2 10.0767 10.6608 10.3211
406 2 10.984 9.15561 10.0469
407 4 7.96889 9.43083 9.81206
408 4 8.83962 8.07184 9.43477
409 4 9.00619 9.43184 8.50743
410 12 9.4561 14.7746 9.74099
411 6 8.8832 19.9231 9.87374
412 4 9.56182 14.9535 8.72686
413 4 8.43686 14.7502 9.91203
414 4 9.82197 13.8182 9.91197
415 10 10.1467 15.8368 10.588
416 3 9.95322 15.5755 11.6344
417 3 11.2293 15.74 10.4288
418 7 9.23805 18.0642 11.3901
419 6 8.83455 19.3891 11.1696
420 8 9.6887 17.2663 10.3222
421 7 9.69729 17.7977 9.02242
422 6 9.30115 19.1238 8.79849
423 1 9.20439 17.6411 12.3931
424 1 8.48421 19.9912 12.0031
425 1 9.98893 17.176 8.17704
426 1 8.56199 20.9439 9.70011
427 1 9.29027 19.5079 7.78282
428 13 6.79216 12.5252 13.1916
429 5 9.83921 12.4613 13.1614
430 5 6.65413 9.41315 13.3735
431 5 6.76375 12.4095 16.3539
432 5 6.7791 15.5622 13.6131
433 11 8.87669 8.97623 16.5954
434 9 10.0671 9.7312 16.0407
435 2 9.93751 10.7943 16.2606
436 2 10.1067 9.59096 14.9549
437 2 10.994 9.35802 16.4916
438 4 7.97322 9.34086 16.2344
439 4 8.8299 9.0293 17.6264
440 4 8.90621 7.97156 16.3558
441 12 9.57616 14.8087 15.9121
442 6 9.6485 19.8987 16.3655
443 4 9.87696 15.0212 14.9418
444 4 8.5479 14.9229 15.9386
445 4 9.74739 13.7969 16.0565
446 10 10.2955 15.6806 16.9405
447 3 10.0119 15.3551 17.9461
448 3 11.36 15.4787 16.8065
449 7 8.73937 17.6592 16.6955
450 6 8.54529 19.0271 16.4741
451 8 10.0461 17.1597 16.806
452 7 11.1465 18.0273 16.7094
453 6 10.9597 19.3939 16.4677
454 1 7.89128 16.9752 16.739
455 1 7.53313 19.4057 16.3721
456 1 12.1457 17.605 16.7841
457 1 9.49248 20.9558 16.1733
458 1 11.8178 20.0523 16.3616
459 13 6.61827 12.5137 19.3807
460 5 9.66437 12.3108 19.366
461 5 6.61641 9.38718 19.6454
462 5 6.36785 12.5627 -2.31017
463 5 6.8292 15.5878 19.6849
464 11 10.0991 8.99358 -3.06803
465 9 9.28455 9.74106 -2.02739
466 2 9.62963 9.46276 -1.02505
467 2 8.22637 9.48669 -2.13324
468 2 9.40712 10.8118 -2.19718
469 4 9.90096 7.97796 -3.03503
470 4 11.1175 9.09794 -2.90186
471 4 9.90235 9.31274 20.7626
472 12 9.41219 14.7372 -2.61022
473 6 10.0301 19.6473 21.4909
474 4 9.59703 14.8011 21.1726
475 4 8.41237 14.9889 -2.50431
476 4 9.49735 13.7354 -2.36033
477 10 10.341 15.6299 -1.80039
478 3 10.0942 15.5246 -0.738354
479 3 11.3629 15.2703 -1.95372
480 7 8.99122 17.6914 -2.31238
481 6 8.87346 18.9723 -2.87245
482 8 10.2516 17.0772 -2.2201
483 7 11.4104 17.7752 -2.59911
484 6 11.303 19.0657 21.6582
485 1 8.09729 17.1475 -2.01352
486 1 7.88798 19.4068 -3.01621
487 1 12.3843 17.2904 -2.53
488 1 9.93826 20.6139 21.0069
489 1 12.1989 19.567 21.3009
490 13 6.69541 12.8159 0.797173
491 5 9.74062 12.4263 0.657893
492 5 6.55841 9.51171 0.827543
493 5 6.82615 12.6383 3.86038
494 5 6.94465 15.7994 0.960877
495 11 10.0792 9.82237 3.17705
496 9 9.16589 9.17463 4.19969
497 2 9.23797 8.08937 4.09373
498 2 8.13253 9.47366 4.00794
499 2 9.47083 9.46079 5.21097
500 4 9.84318 9.5505 2.20268
501 4 11.0729 9.56879 3.3306
502 4 10.0317 10.8543 3.2201
503 12 9.7642 14.9616 3.23324
504 6 8.69832 19.7547 4.80538
505 4 10.0401 15.3826 2.32729
506 4 8.73402 14.8894 3.22678
507 4 10.1291 13.9948 3.23246
508 10 10.2668 15.7521 4.42133
509 3 10.0014 15.2067 5.33409
510 3 11.3579 15.7562 4.32846
511 7 8.33727 17.3892 4.38342
512 6 7.82605 18.6856 4.53957
513 8 9.72011 17.1618 4.49865
514 7 10.5879 18.2279 4.78823
515 6 10.0756 19.5264 4.93965
516 1 7.64932 16.5621 4.21118
517 1 6.75091 18.8383 4.4612
518 1 11.6491 18.0307 4.93934
519 1 8.29754 20.7539 4.93959
520 1 10.7413 20.3485 5.18303
521 13 12.5919 0.0997939 6.87959
522 5 15.6347 0.137418 6.85594
523 5 12.5641 -2.91104 7.08379
524 5 12.6505 0.14853 10.1614
525 12 15.3166 -2.3094 9.50907
526 6 14.8309 -7.35263 10.3585
527 4 14.2881 -2.39113 9.48088
528 4 15.6643 -2.53182 8.55658
529 4 15.5124 -1.30419 9.66718
530 10 15.9486 -3.18656 10.5922
531 3 17.0345 -3.06543 10.5281
532 3 15.6306 -2.79629 11.5654
533 7 16.5215 -5.65924 10.792
534 6 16.1489 -7.01128 10.708
535 8 15.577 -4.65364 10.5192
536 7 14.2565 -5.00247 10.2298
537 6 13.877 -6.34583 10.1311
538 1 17.5329 -5.37402 11.0767
539 1 16.8767 -7.78834 10.922
540 1 13.5002 -4.23035 10.0935
541 1 14.5418 -8.39495 10.2855
542 1 12.8421 -6.58406 9.89586
543 13 12.5451 0.0122563 13.2406
544 5 15.6501 0.0662787 13.2746
545 5 12.3558 -2.96335 13.1007
546 5 12.4112 0.0997522 16.3134
547 12 16.0954 -2.38673 16.2157
548 6 15.3984 -7.18546 14.8594
549 4 15.9971 -2.40542 15.1841
550 4 17.0905 -2.60284 16.4112
551 4 15.955 -1.40736 16.518
552 10 15.1415 -3.37638 16.8952
553 3 15.3281 -3.3766 17.9738
554 3 14.1199 -3.00306 16.7521
555 7 16.4788 -5.39976 16.1347
556 6 16.5523 -6.60204 15.4071
557 8 15.2335 -4.77241 16.3182
558 7 14.0848 -5.36185 15.773
559 6 14.1589 -6.5499 15.0293
560 1 17.3843 -4.91285 16.5023
561 1 17.5246 -7.03911 15.2123
562 1 13.134 -4.83794 15.8521
563 1 15.4741 -8.07494 14.2432
564 1 13.27 -6.92435 14.5269
565 13 12.5345 0.159973 19.4536
566 5 15.6127 0.255237 19.2308
567 5 12.3759 -2.98046 19.7781
568 5 12.7166 0.317807 -2.29259
569 12 15.2746 -2.26793 -2.71039
570 6 15.6894 -7.40249 -1.91925
571 4 14.2515 -2.4274 -2.70214
572 4 15.62 -2.44574 21.1272
573 4 15.4114 -1.25494 -2.54212
574 10 16.0054 -3.09357 -1.65539
575 3 17.0643 -2.82926 -1.72188
576 3 15.6582 -2.784 -0.664024
577 7 17.0105 -5.38874 -1.56995
578 6 16.9245 -6.78983 -1.65059
579 8 15.88 -4.59602 -1.78441
580 7 14.6412 -5.20668 -2.04046
581 6 14.5436 -6.60752 -2.11076
582 1 17.9578 -4.91036 -1.32739
583 1 17.8202 -7.38546 -1.49547
584 1 13.7549 -4.58665 -2.17648
585 1 15.617 -8.48459 -1.98018
586 1 13.5814 -7.06768 -2.31921
587 13 12.7369 0.1619 0.748426
588 5 15.7341 0.261179 0.847382
589 5 12.4021 -2.88454 0.634804
590 5 12.4831 0.00840162 3.86057
591 12 16.1228 -2.12588 3.67775
592 6 16.0424 -6.89168 2.04539
593 4 16.087 -2.10866 2.64372
594 4 17.1268 -2.22102 3.91999
595 4 15.82 -1.19241 4.01499
596 10 15.2685 -3.26092 4.24311
597 3 15.4322 -3.31249 5.32552
598 3 14.2202 -2.98502 4.0745
599 7 16.8598 -5.07834 3.44328
600 6 17.1093 -6.23111 2.67786
601 8 15.5502 -4.59913 3.59274
602 7 14.4902 -5.28927 3.01264
603 6 14.7321 -6.40893 2.19421
604 1 17.6857 -4.50887 3.85672
605 1 18.1364 -6.54888 2.51734
606 1 13.4898 -4.881 3.08343
607 1 16.2338 -7.74356 1.40162
608 1 13.8999 -6.86327 1.66064
609 13 12.5865 6.21376 6.99508
610 5 15.7923 6.17319 7.14488
611 5 12.5692 3.23053 6.70047
612 5 12.7374 6.01656 10.1166
613 11 16.3574 3.76292 10.4515
614 9 15.4042 2.80488 9.76797
615 2 15.4523 2.96819 8.69001
616 2 14.3826 3.00161 10.0992
617 2 15.685 1.77351 10.0059
618 4 16.1453 4.75141 10.2233
619 4 17.3462 3.61548 10.1768
620 4 16.3268 3.6856 11.4837
621 13 12.777 6.30796 13.021
622 5 15.94 6.28434 12.9553
623 5 12.6828 3.15853 13.2853
624 5 12.9298 6.31177 16.166
625 11 15.0788 2.71238 16.7203
626 9 16.0647 3.527 15.9105
627 2 15.9268 3.31379 14.8459
628 2 17.0856 3.27036 16.2138
629 2 15.8884 4.59075 16.0937
630 4 15.2174 1.69622 16.5897
631 4 14.093 2.907 16.4645
632 4 15.1732 2.90637 17.734
633 13 12.8078 6.39105 19.3763
634 5 15.8232 6.01916 19.449
635 5 12.5304 3.18727 19.217
636 5 12.549 6.21488 -2.2794
637 11 16.3479 2.85342 -2.85118
638 9 15.4277 3.58226 -1.89334
639 2 15.6103 4.65793 -1.98506
640 2 15.6432 3.27556 -0.864427
641 2 14.3875 3.35561 -2.14587
642 4 17.3471 2.96731 -2.597
643 4 16.2564 3.21852 20.9821
644 4 16.1574 1.83744 -2.89314
645 13 12.7759 6.3874 0.846352
646 5 15.8464 6.29525 1.02976
647 5 12.5935 3.3812 0.966462
648 5 12.5904 6.5749 3.97411
649 11 16.2403 3.23389 4.98374
650 9 15.5489 3.21465 3.62706
651 2 14.9845 2.28532 3.52942
652 2 16.2822 3.2842 2.81529
653 2 14.8589 4.05908 3.55976
654 4 16.8287 2.39867 5.13876
655 4 15.5684 3.27682 5.77102
656 4 16.8612 4.05026 5.09805
657 13 12.7458 12.4596 7.07797
658 5 15.9147 12.3813 6.86655
659 5 12.9342 9.25116 7.16132
660 5 12.8934 12.5593 10.1295
661 5 12.8687 15.5518 7.23969
662 11 15.3335 8.77867 9.77244
663 9 16.3691 9.68217 10.4196
664 2 16.1874 10.7128 10.0979
665 2 17.3786 9.37256 10.1385
666 2 16.2687 9.60639 11.503
667 4 15.4424 8.75532 8.74445
668 4 14.3635 9.08924 9.97323
669 4 15.4034 7.79918 10.1035
670 12 15.8285 14.8004 9.62113
671 6 15.2535 19.8108 9.31795
672 4 16.0548 14.8865 8.61476
673 4 14.7987 14.8951 9.67879
674 4 16.0609 13.8248 9.88823
675 10 16.5632 15.8381 10.4555
676 3 16.3547 15.6416 11.5166
677 3 17.6368 15.6941 10.2914
678 7 14.8312 17.6472 10.3493
679 6 14.3856 18.9375 9.99744
680 8 16.1326 17.239 10.0657
681 7 16.9849 18.0967 9.35765
682 6 16.5505 19.3843 8.98629
683 1 14.1373 16.9579 10.8244
684 1 13.359 19.222 10.2208
685 1 17.9776 17.7503 9.07814
686 1 14.9002 20.7932 9.02238
687 1 17.2184 20.0288 8.42204
688 13 12.8832 12.4908 13.158
689 5 15.9891 12.4303 13.2324
690 5 13.0191 9.31366 12.9108
691 5 12.968 12.2646 16.2914
692 5 12.8247 15.4857 13.5552
693 11 15.4932 8.95265 15.5439
694 9 16.3319 9.65999 16.6072
695 2 15.9924 9.37942 17.6103
696 2 16.2291 10.7413 16.4743
697 2 17.3862 9.38196 16.4939
698 4 14.4862 9.19528 15.6159
699 4 15.55 7.91902 15.6107
700 4 15.7852 9.19914 14.5786
701 12 15.5718 14.7155 15.9554
702 6 16.3808 19.6959 15.5241
703 4 15.6363 14.9239 14.9426
704 4 14.5789 14.8704 16.2058
705 4 15.7462 13.7006 16.0687
706 10 16.5295 15.5693 16.7777
707 3 16.3091 15.4263 17.8416
708 3 17.5374 15.187 16.5885
709 7 15.238 17.6569 16.1817
710 6 15.1852 18.9894 15.747
711 8 16.4752 17.0333 16.3974
712 7 17.6634 17.7271 16.1412
713 6 17.6177 19.0496 15.6882
714 1 14.3186 17.0959 16.3367
715 1 14.2262 19.4584 15.5508
716 1 18.619 17.2112 16.2429
717 1 16.35 20.7129 15.1463
718 1 18.5458 19.557 15.4463
719 13 12.9377 12.3647 19.3214
720 5 16.1213 12.4218 19.457
721 5 12.9946 9.27888 19.4792
722 5 12.9101 12.3006 -2.34175
723 5 13.2631 15.4271 19.5045
724 11 16.5121 9.76818 -2.79692
725 9 15.5935 8.88412 -1.9635
726 2 15.7672 9.09558 -0.902735
727 2 15.7943 7.82666 -2.17028
728 2 14.5499 9.10871 -2.20442
729 4 17.5108 9.63102 -2.55235
730 4 16.3247 10.7768 -2.64981
731 4 16.4205 9.59873 20.9851
732 12 15.742 14.7791 -2.53615
733 6 15.4947 19.8596 -2.65601
734 4 15.8156 14.9078 21.2381
735 4 14.733 14.8684 -2.31932
736 4 16.0023 13.792 -2.35326
737 10 16.6064 15.7588 -1.75613
738 3 16.475 15.5457 -0.687504
739 3 17.661 15.5712 -1.99611
740 7 15.7545 18.0376 -1.0451
741 6 15.4024 19.3673 -1.34326
742 8 16.2245 17.1972 -2.06274
743 7 16.2953 17.6923 21.4227
744 6 15.9304 19.0131 21.1175
745 1 15.6523 17.6491 -0.0312551
746 1 15.0381 20.0087 -0.546582
747 1 16.6062 17.0279 20.6192
748 1 15.1999 20.8803 -2.88046
749 1 15.9696 19.3583 20.087
750 13 12.9367 12.4253 0.672444
751 5 15.9798 12.3904 0.632534
752 5 12.7606 9.43013 0.779163
753 5 12.6777 12.3306 3.86386
754 5 13.1142 15.4278 1.02271
755 11 15.3308 9.05231 4.5229
756 9 16.2081 9.71786 3.47169
757 2 15.8428 9.48247 2.46656
758 2 17.238 9.35719 3.57335
759 2 16.1831 10.7987 3.63048
760 4 15.3168 8.01979 4.44023
761 4 14.343 9.3619 4.45429
762 4 15.6512 9.27769 5.48587
763 12 15.7939 14.6207 3.48588
764 6 15.5044 19.7117 3.32119
765 4 16.03 14.8345 2.49904
766 4 14.7613 14.6198 3.53328
767 4 16.1081 13.6491 3.66269
768 10 16.4252 15.638 4.43607
769 3 16.1428 15.4143 5.47092
770 3 17.5054 15.4951 4.33645
771 7 14.7583 17.4779 3.91514
772 6 14.4608 18.7932 3.52481
773 8 16.0847 17.0713 4.08819
774 7 17.1213 17.9987 3.92278
775 6 16.836 19.316 3.53384
776 1 13.952 16.7629 4.07323
777 1 13.4243 19.0712 3.35226
778 1 18.1527 17.6743 4.06923
779 1 15.2822 20.7243 3.0003
780 1 17.6535 20.0135 3.38018
781 13 18.8105 -0.109284 7.20478
782 5 -3.01253 0.178711 7.37365
783 5 18.383 -2.95265 6.94539
784 5 18.6789 -0.0801119 10.2576
785 12 -2.56703 -2.34619 9.93556
786 6 21.6965 -6.83899 8.16611
787 4 -2.67689 -2.38751 8.90812
788 4 -1.56178 -2.53339 10.1037
789 4 -2.7295 -1.36828 10.2341
790 10 21.349 -3.35695 10.6511
791 3 21.6294 -3.39181 11.7091
792 3 20.3186 -2.99493 10.6085
793 7 -2.09483 -5.30953 9.75646
794 6 -1.97153 -6.37537 8.85297
795 8 21.456 -4.71309 9.98806
796 7 20.3235 -5.22167 9.36107
797 6 20.4491 -6.25174 8.41718
798 1 -1.19861 -4.86599 10.1887
799 1 -0.983401 -6.75464 8.60433
800 1 19.3616 -4.73912 9.51549
801 1 -2.99601 -7.60988 7.41126
802 1 19.5719 -6.54092 7.8446
803 13 18.6297 -0.146751 13.2462
804 5 -3.06555 -0.118145 13.052
805 5 18.6373 -3.15517 13.6555
806 5 18.8297 0.0355592 16.2312
807 12 21.6403 -2.42115 15.8958
808 6 21.6852 -7.55328 16.7847
809 4 20.6113 -2.49284 15.8371
810 4 -2.7857 -2.70479 14.9695
811 4 -2.93432 -1.41387 15.988
812 10 -2.58362 -3.24693 17.0459
813 3 -1.51483 -3.02096 17.0677
814 3 -3.01048 -2.88435 17.9892
815 7 -1.66649 -5.61968 17.081
816 6 -1.83623 -7.01319 16.9806
817 8 -2.76668 -4.75972 16.9427
818 7 20.7553 -5.30142 16.7422
819 6 20.5772 -6.69631 16.6796
820 1 -0.677947 -5.20288 17.2609
821 1 -0.97292 -7.66742 17.0692
822 1 19.8946 -4.63899 16.6548
823 1 21.5533 -8.62944 16.7327
824 1 19.5823 -7.10104 16.5288
825 13 18.8017 -0.0704147 19.3083
826 5 -2.85756 0.157288 19.6614
827 5 18.3966 -3.00635 19.3053
828 5 18.5916 0.0563117 -2.36357
829 12 -2.14437 -2.07781 -2.32343
830 6 -2.75874 -6.78435 21.0872
831 4 -2.22411 -2.15239 21.4488
832 4 -1.15195 -2.28655 -2.1151
833 4 -2.29145 -1.08579 -2.07725
834 10 21.6961 -3.03144 -1.60802
835 3 -2.8707 -3.03061 -0.538336
836 3 20.6859 -2.62252 -1.72243
837 7 -1.80123 -5.08645 -2.25693
838 6 -1.66226 -6.27326 -2.99313
839 8 -3.03675 -4.42558 -2.19186
840 7 20.6485 -4.97846 -2.83035
841 6 20.7959 -6.13036 21.1736
842 1 -0.921955 -4.63643 -1.7973
843 1 -0.680605 -6.73276 -3.08057
844 1 19.704 -4.44082 -2.80414
845 1 -2.63665 -7.65616 20.4514
846 1 19.9472 -6.46471 20.5817
847 13 18.8503 0.300623 0.923535
848 5 -2.83785 0.283958 0.539133
849 5 18.8623 -2.67683 1.18293
850 5 19.0295 0.465362 4.08371
851 12 -2.75713 -2.18048 3.29554
852 6 -2.51547 -7.24844 4.44018
853 4 -3.05346 -2.44511 2.33873
854 4 -1.73041 -2.29268 3.31202
855 4 -2.94017 -1.16548 3.38939
856 10 21.3555 -3.01881 4.37095
857 3 21.6391 -2.62694 5.35445
858 3 20.2834 -2.86404 4.25091
859 7 -1.80325 -4.93612 4.17557
860 6 -1.4928 -6.30408 4.26179
861 8 21.6708 -4.50415 4.31104
862 7 20.6518 -5.45284 4.45894
863 6 20.9504 -6.82772 4.49163
864 1 -0.999653 -4.20805 4.08016
865 1 -0.455551 -6.61748 4.22737
866 1 19.6257 -5.10764 4.56397
867 1 -2.27051 -8.30223 4.52176
868 1 20.1425 -7.54475 4.60472
869 13 18.9285 6.37298 7.09456
870 5 -2.84968 6.17523 7.00359
871 5 18.8141 3.21018 7.4304
872 5 18.9513 6.27733 10.1656
873 11 21.3375 2.49509 10.5276
874 9 -2.51575 3.46444 9.83567
875 2 -2.62645 3.33206 8.7612
876 2 -1.48278 3.24816 10.119
877 2 -2.76384 4.49761 10.1015
878 4 21.5645 1.50822 10.3062
879 4 20.349 2.64116 10.2492
880 4 21.386 2.58363 11.5553
881 13 19.1316 6.30251 13.2497
882 5 -2.75412 6.08904 13.3211
883 5 18.9066 3.20794 13.0653
884 5 18.8549 6.22525 16.2776
885 11 21.4253 2.74823 15.6054
886 9 -2.56108 3.51598 16.6367
887 2 -2.83043 3.19068 17.6478
888 2 -2.75471 4.58904 16.5315
889 2 -1.49996 3.31722 16.455
890 4 20.4042 2.86283 15.7524
891 4 21.6218 1.73219 15.6307
892 4 21.6355 3.07138 14.6417
893 13 18.8932 6.20037 19.3618
894 5 -2.83286 6.19745 19.5448
895 5 18.7853 3.06948 19.299
896 5 18.8683 6.00181 -2.37072
897 11 21.2029 2.75037 -2.58049
898 9 -2.45847 3.54161 -1.95092
899 2 -2.52329 3.46338 -0.861458
900 2 -2.58715 4.58836 -2.22801
901 2 -1.48355 3.17251 -2.29284
902 4 20.285 3.17582 -2.35432
903 4 21.1736 1.7755 -2.23218
904 4 21.2726 2.7117 21.1857
905 13 18.892 6.2488 0.961332
906 5 -2.76715 6.53329 0.801627
907 5 19.0395 3.22442 0.645776
908 5 18.9164 5.95381 4.07914
909 11 21.5797 3.07755 4.90751
910 9 -2.45339 3.5946 3.69105
911 2 -1.40988 3.26966 3.74254
912 2 -2.50074 4.6856 3.69424
913 2 -2.90644 3.23347 2.75975
914 4 -2.82038 3.39987 5.80661
915 4 21.5611 2.04476 4.9531
916 4 20.5917 3.38987 4.89529
917 13 19.0425 12.3051 6.85341
918 5 -2.63523 12.2386 6.7539
919 5 18.7123 9.25989 6.96872
920 5 19.0073 12.5266 9.96015
921 5 19.3867 15.4627 6.97605
922 11 -2.32613 8.76422 10.703
923 9 21.6628 9.61187 9.73352
924 2 -2.90899 9.33497 8.69787
925 2 -2.88889 10.6653 9.8982
926 2 20.5954 9.45269 9.91125
927 4 -1.31015 8.8647 10.5255
928 4 -2.54503 7.75286 10.6428
929 4 -2.4815 9.04691 11.6894
930 12 -2.8519 14.7197 9.47747
931 6 -2.96242 19.8172 9.53998
932 4 -2.6427 14.8828 8.47436
933 4 20.9253 14.8476 9.56893
934 4 -2.67103 13.7188 9.66984
935 10 -2.07414 15.6576 10.393
936 3 -2.32664 15.4199 11.4349
937 3 -1.00946 15.4352 10.2644
938 7 21.1077 17.5676 10.0818
939 6 20.8035 18.9137 9.82977
940 8 -2.36412 17.1203 10.082
941 7 -1.3367 18.0216 9.77083
942 6 -1.63182 19.3748 9.5053
943 1 20.3023 16.8612 10.2721
944 1 19.768 19.2425 9.8383
945 1 -0.30957 17.6648 9.74644
946 1 21.5998 20.8549 9.32652
947 1 -0.830944 20.0645 9.25365
948 13 19.1293 12.5266 13.1251
949 5 -2.55136 12.3824 13.1089
950 5 19.3031 9.35185 13.1074
951 5 19.3601 12.2786 16.1715
952 5 19.3922 15.4841 13.2424
953 11 -2.32462 9.91729 15.7638
954 9 -3.01183 8.91576 16.6806
955 2 -2.67809 7.89852 16.4472
956 2 20.7097 9.00162 16.5277
957 2 -2.76867 9.15135 17.7234
958 4 -2.53053 9.74521 14.7623
959 4 -1.29365 9.90848 15.8582
960 4 -2.62598 10.8919 15.9476
961 12 -2.89216 14.8244 15.9005
962 6 -3.06016 19.8717 15.8913
963 4 -2.76073 14.8925 14.8748
964 4 20.9052 15.0259 16.0735
965 4 -2.73764 13.83 16.1445
966 10 -1.96801 15.7634 16.6689
967 3 -2.12398 15.5416 17.7303
968 3 -0.926717 15.5212 16.4225
969 7 -2.56407 18.085 17.464
970 6 -2.97432 19.4035 17.2133
971 8 -2.26114 17.2235 16.4038
972 7 -2.35876 17.6943 15.087
973 6 -2.75709 19.0112 14.8238
974 1 -2.53032 17.6913 18.4828
975 1 21.546 20.0458 18.044
976 1 -2.18274 17.0093 14.2594