ITEM: TIMESTEP
110000
ITEM: NUMBER OF ATOMS
1040
ITEM: BOX BOUNDS pp pp pp
-3.1362406703011860e+00 2.1736240670301097e+01
-6.9095259441535461e+01 8.1495259441535467e+01
-3.0475670391224439e+00 2.1647567039122691e+01
ITEM: ATOMS id type x y z
1 13 0.385619 -0.0314427 8.89008
2 5 3.65786 0.135702 8.78078
3 5 0.510331 -3.08036 8.64611
4 5 0.402439 0.00819219 11.9123
5 12 3.16668 -2.25256 12.0849
6 6 3.81697 -7.38112 12.224
7 4 3.36658 -2.38875 13.0698
8 4 2.13032 -2.45955 11.9614
9 4 3.19587 -1.25141 11.7969
10 10 4.11854 -3.1704 11.268
11 3 3.96656 -2.95988 10.2067
12 3 5.04069 -2.74107 11.5759
13 7 5.1751 -5.34212 11.949
14 6 5.02182 -6.67186 12.3536
15 8 4.01771 -4.67883 11.5372
16 7 2.74505 -5.28123 11.6224
17 6 2.65434 -6.70052 11.8049
18 1 6.16252 -4.82358 11.9265
19 1 5.948 -7.08796 12.7108
20 1 1.77202 -4.69927 11.4302
21 1 3.90574 -8.45416 12.4496
22 1 1.7125 -7.27611 11.9119
23 13 0.123284 -0.241174 15.1323
24 5 3.39647 0.117881 15.1991
25 5 0.550874 -3.21175 14.4995
26 5 0.405035 -0.0757963 18.3513
27 12 4.04733 -2.04858 18.4183
28 6 4.21456 -7.26882 18.6442
29 4 3.98932 -2.14823 19.4586
30 4 3.77616 -1.12228 18.0706
31 4 5.00064 -2.10209 18.1966
32 10 3.24358 -3.14829 17.7818
33 3 2.18219 -2.92904 18.1342
34 3 3.41013 -3.02547 16.7259
35 7 3.60561 -5.00206 19.4114
36 6 3.91408 -6.37891 19.6715
37 8 3.58609 -4.53768 18.1027
38 7 3.85598 -5.42702 17.0604
39 6 4.16316 -6.79781 17.2985
40 1 3.42491 -4.37401 20.2514
41 1 3.80796 -6.75663 20.6659
42 1 3.8003 -5.06967 16.0529
43 1 4.29179 -8.27959 18.8967
44 1 4.32477 -7.50682 16.5787
45 13 0.47861 0.109864 21.4397
46 5 3.72333 0.295842 21.3671
47 5 0.900075 -3.29194 -2.75853
48 5 0.874222 -0.0085327 -0.247043
49 12 4.01173 -2.30428 -0.519989
50 6 5.2528 -7.07604 -1.39901
51 4 4.0921 -1.43893 -0.0919736
52 4 3.26177 -2.30305 -1.23196
53 4 4.91745 -2.29536 -1.05058
54 10 3.85329 -3.37508 0.49697
55 3 4.5213 -3.1265 1.27881
56 3 2.80745 -3.43717 0.854625
57 7 3.40194 -5.74925 -0.428874
58 6 3.90362 -6.9143 -1.11734
59 8 4.31527 -4.71428 -0.140435
60 7 5.65291 -4.85467 -0.451489
61 6 6.11312 -6.01575 -1.06152
62 1 2.40585 -5.51183 -0.305407
63 1 3.2317 -7.68381 -1.50621
64 1 6.26438 -4.02572 -0.361364
65 1 5.73186 -7.81419 -1.98708
66 1 7.14019 -5.9089 -1.35837
67 13 0.747066 -0.236833 2.74796
68 5 3.88159 -0.130367 2.72431
69 5 0.266191 -3.40292 3.04385
70 5 0.677836 0.00180061 5.90686
71 12 4.50942 -2.31437 6.12602
72 6 4.19166 -7.43779 5.85827
73 4 5.43624 -2.69425 6.05869
74 4 4.31789 -2.37947 7.14579
75 4 4.39024 -1.31376 5.85955
76 10 3.53128 -3.25051 5.39917
77 3 2.47905 -3.03953 5.6886
78 3 3.5399 -3.02191 4.30031
79 7 3.67789 -5.25986 6.85059
80 6 3.80899 -6.63322 6.98701
81 8 3.87151 -4.68673 5.57554
82 7 4.29187 -5.44099 4.49795
83 6 4.47731 -6.81031 4.69108
84 1 3.4311 -4.61076 7.65193
85 1 3.73831 -7.11567 7.99693
86 1 4.5014 -4.92308 3.55229
87 1 4.26857 -8.5051 5.9548
88 1 4.78854 -7.39663 3.86121
89 13 0.637524 6.32899 9.05463
90 5 3.56047 6.43849 9.26624
91 5 0.269193 3.00446 8.82738
92 5 0.440814 5.95894 12.0809
93 11 4.03518 3.86424 12.5702
94 9 3.29171 2.89822 11.5428
95 2 3.51694 1.88149 11.7592
96 2 3.41823 3.13347 10.4803
97 2 2.22736 2.93715 11.8591
98 4 5.04052 3.84461 12.47
99 4 3.79266 3.64211 13.6072
100 4 3.83307 4.83824 12.4322
101 13 0.357955 6.09684 14.9991
102 5 3.43187 6.09584 15.3866
103 5 0.24501 2.83759 15.2448
104 5 0.335755 6.14332 18.1566
105 11 2.76259 2.71253 17.762
106 9 3.69976 3.64214 18.4713
107 2 3.32367 4.65059 18.4868
108 2 4.66707 3.69738 17.9696
109 2 3.78039 3.31528 19.4876
110 4 1.82175 2.79953 18.0401
111 4 3.03191 1.72739 17.8869
112 4 2.62634 2.90946 16.7797
113 13 0.368692 6.0436 21.512
114 5 3.47888 6.59775 21.4996
115 5 0.691183 3.1449 21.1387
116 5 0.379415 5.82549 -0.122004
117 11 3.35802 2.88128 0.341337
118 9 4.13989 3.79394 -0.620124
119 2 5.22461 3.611 -0.555359
120 2 3.99168 4.86255 -0.302962
121 2 3.83302 3.59065 -1.62062
122 4 2.30324 3.08519 0.235847
123 4 3.58759 3.08501 1.38374
124 4 3.38398 1.82133 0.170224
125 13 0.425908 5.91927 2.97789
126 5 3.50963 6.24411 2.77539
127 5 0.79349 2.92502 2.95056
128 5 0.531086 6.26513 5.97086
129 11 2.8968 2.94762 6.48268
130 9 3.99057 3.56979 5.67639
131 2 3.98824 3.04356 4.70236
132 2 4.99841 3.45887 6.14041
133 2 3.75601 4.59812 5.62095
134 4 3.21998 1.96554 6.65245
135 4 1.9897 2.83726 5.96683
136 4 2.78722 3.47145 7.34479
137 13 0.465648 12.1776 8.77948
138 5 3.4437 12.2765 9.04187
139 5 0.534832 9.40444 9.05603
140 5 0.266561 12.2874 11.8953
141 5 0.335466 15.3776 8.80166
142 11 4.32585 9.49201 11.3776
143 9 3.34821 8.95247 12.3579
144 2 2.38779 9.3787 12.0015
145 2 3.68872 9.25675 13.3689
146 2 3.33858 7.86159 12.2084
147 4 4.05504 9.22231 10.4549
148 4 5.32848 9.24017 11.5699
149 4 4.3278 10.5006 11.3417
150 12 3.01372 14.7671 12.0423
151 6 2.77127 19.8715 12.5557
152 4 2.07331 14.5977 11.5497
153 4 2.77322 15.0014 13.0282
154 4 3.50623 13.8404 11.989
155 10 3.81342 15.8482 11.3508
156 3 4.834 15.7088 11.5554
157 3 3.66454 15.7194 10.2357
158 7 3.39823 17.5755 13.0332
159 6 3.05623 18.8269 13.5426
160 8 3.37584 17.2665 11.7165
161 7 3.12196 18.2813 10.7469
162 6 2.92004 19.5947 11.1984
163 1 3.55779 16.8058 13.7665
164 1 3.02756 19.0539 14.6038
165 1 3.17988 18.146 9.70966
166 1 2.43013 20.8913 12.8109
167 1 2.89044 20.3549 10.4767
168 13 0.462513 12.1414 15.0822
169 5 3.39561 12.5602 14.7488
170 5 0.513417 9.16122 15.2749
171 5 0.555026 12.3008 18.0848
172 5 0.237152 15.4139 15.2764
173 11 2.49851 8.81632 18.688
174 9 3.69615 9.51374 17.9344
175 2 4.57167 8.86894 17.891
176 2 3.89669 10.4205 18.5175
177 2 3.36084 9.69804 16.9408
178 4 2.5737 8.99736 19.7233
179 4 2.61412 7.83329 18.601
180 4 1.62267 9.18998 18.3202
181 12 3.05092 15.0545 18.4417
182 6 3.17271 20.1477 18.7077
183 4 3.39774 14.0953 18.2225
184 4 2.05169 14.9225 18.3823
185 4 3.3209 15.0809 19.4648
186 10 3.73152 16.0668 17.3922
187 3 4.70444 15.8757 17.5766
188 3 3.51568 15.8234 16.3849
189 7 4.52903 18.363 17.684
190 6 4.40849 19.6392 18.1731
191 8 3.50166 17.4704 17.8173
192 7 2.24427 17.9122 18.2427
193 6 2.06628 19.2247 18.6933
194 1 5.49774 18.0455 17.2494
195 1 5.28506 20.2256 18.3092
196 1 1.43252 17.183 18.3201
197 1 3.05325 21.0807 19.1608
198 1 1.15444 19.5046 19.1062
199 13 0.314269 12.5334 21.2876
200 5 3.33964 12.4894 21.2117
201 5 0.392901 9.58801 21.6225
202 5 0.346199 12.5064 -0.402288
203 5 0.49184 15.5219 21.0078
204 11 3.89807 9.89858 -0.841983
205 9 3.21359 8.94425 0.160679
206 2 3.43755 9.20854 1.1851
207 2 3.54251 7.93804 -0.111545
208 2 2.119 8.93272 0.0404944
209 4 4.89805 10.08 -0.611464
210 4 3.37001 10.8408 -0.849436
211 4 3.92294 9.54608 -1.82793
212 12 3.22395 15.243 -1.0719
213 6 5.40907 19.5236 0.34034
214 4 3.15752 15.4182 -2.1049
215 4 2.66197 14.3984 -0.851966
216 4 4.16522 14.9558 -0.950411
217 10 2.69814 16.3409 -0.0770643
218 3 1.68775 16.6477 -0.233182
219 3 2.67717 15.9429 0.937543
220 7 4.16567 18.188 -1.16485
221 6 5.08448 19.1538 -0.955721
222 8 3.57283 17.5585 -0.0294774
223 7 3.95046 17.8998 1.25991
224 6 4.86569 18.8602 1.4859
225 1 3.95476 17.7807 -2.09031
226 1 5.63048 19.6176 -1.79671
227 1 3.53811 17.2638 2.08275
228 1 6.08911 20.3672 0.543947
229 1 5.1016 19.1044 2.47586
230 13 0.332356 12.5745 2.62975
231 5 3.37865 12.6516 2.5307
232 5 0.255533 9.2937 2.74482
233 5 0.772281 12.4051 5.51969
234 5 -0.0355415 15.6459 2.52789
235 11 3.73814 10.1751 5.10797
236 9 3.30789 9.01903 6.00548
237 2 3.94701 9.03559 6.97491
238 2 3.48172 8.07795 5.49722
239 2 2.24595 9.13947 6.15787
240 4 3.4062 10.1339 4.13637
241 4 4.786 10.2229 4.93853
242 4 3.39687 11.1168 5.39014
243 12 3.95489 14.9008 5.79896
244 6 3.24445 19.4295 7.23697
245 4 4.94561 15.1759 5.69014
246 4 3.87425 13.9332 5.58817
247 4 3.81135 14.8503 6.84144
248 10 3.04805 15.8441 5.01043
249 3 3.09856 15.8191 3.88263
250 3 2.10665 15.5121 5.32727
251 7 1.97192 17.8094 5.98406
252 6 1.98701 18.9208 6.84335
253 8 3.12471 17.2292 5.58354
254 7 4.40615 17.8084 5.85853
255 6 4.46254 19.0033 6.58708
256 1 1.03534 17.337 5.78457
257 1 1.09354 19.3858 7.27639
258 1 5.36807 17.3775 5.41877
259 1 3.18868 20.3201 7.8848
260 1 5.37198 19.4962 6.81951
261 13 6.76075 0.149266 9.08348
262 5 9.88308 0.171427 9.16846
263 5 6.86277 -2.83104 8.75917
264 5 6.58475 0.0479827 12.0561
265 12 10.1906 -2.11015 12.5844
266 6 10.6056 -7.25166 12.1553
267 4 11.1625 -2.20945 12.4039
268 4 10.0907 -2.33325 13.6158
269 4 9.94566 -1.11921 12.4816
270 10 9.33203 -3.14376 11.8222
271 3 8.3058 -2.95636 12.1247
272 3 9.44648 -2.76233 10.8059
273 7 9.90235 -5.18074 13.2409
274 6 10.3957 -6.42615 13.2462
275 8 9.77655 -4.58934 11.9632
276 7 10.0045 -5.34839 10.7957
277 6 10.4204 -6.66351 10.8604
278 1 9.76528 -4.58259 14.1067
279 1 10.481 -6.81146 14.2586
280 1 9.90388 -4.92331 9.85651
281 1 10.9203 -8.28189 12.3108
282 1 10.5481 -7.30758 9.96052
283 13 6.41036 0.152103 14.937
284 5 9.7165 0.345131 15.2662
285 5 6.75746 -3.03693 15.1948
286 5 6.59804 0.329662 18.0903
287 12 9.38583 -2.07134 17.9638
288 6 9.83012 -7.19749 17.3193
289 4 9.29939 -2.185 16.9254
290 4 9.81698 -1.142 18.1178
291 4 8.42541 -2.09511 18.401
292 10 10.2566 -3.11611 18.6395
293 3 11.2297 -2.82531 18.3913
294 3 10.1731 -3.06478 19.7292
295 7 11.1585 -5.44758 18.2525
296 6 11.115 -6.77976 17.8448
297 8 10.0946 -4.54325 18.2309
298 7 8.8342 -5.15609 18.0406
299 6 8.70475 -6.37477 17.4509
300 1 12.1707 -5.10397 18.6362
301 1 12.0374 -7.40924 17.9273
302 1 7.98471 -4.49385 18.0012
303 1 9.71553 -8.18107 16.9285
304 1 7.83779 -6.75206 16.9074
305 13 6.85431 0.196213 21.2514
306 5 9.70163 0.227065 21.1201
307 5 6.82774 -2.94379 21.02
308 5 6.89943 0.0461445 -0.224787
309 12 10.2528 -2.38626 0.242536
310 6 11.1499 -7.35311 -0.531519
311 4 10.1753 -1.41143 -0.16829
312 4 11.2679 -2.61342 0.420716
313 4 9.81394 -2.2693 1.17161
314 10 9.44745 -3.38459 -0.573888
315 3 8.356 -3.26778 -0.400158
316 3 9.62015 -3.0745 -1.65069
317 7 10.3831 -5.43218 0.733925
318 6 11.0906 -6.6757 0.711442
319 8 9.92671 -4.81138 -0.458361
320 7 10.0352 -5.53995 -1.65585
321 6 10.5965 -6.84699 -1.67832
322 1 10.2422 -4.78385 1.63965
323 1 11.5294 -7.01848 1.609
324 1 9.50386 -5.10972 -2.50253
325 1 11.6414 -8.3177 -0.454358
326 1 10.7006 -7.37339 -2.61549
327 13 6.87576 0.119723 2.87404
328 5 9.86688 0.566309 2.91487
329 5 7.15698 -2.86093 3.03642
330 5 6.75725 0.336776 5.75951
331 12 9.63106 -1.96254 5.6279
332 6 9.9276 -7.16576 5.69183
333 4 9.82011 -2.0547 4.65983
334 4 9.84482 -0.95502 5.75343
335 4 8.62009 -2.11973 5.73285
336 10 10.4924 -3.01955 6.3823
337 3 11.5065 -2.67486 6.2855
338 3 10.2773 -2.78521 7.47183
339 7 8.97561 -5.01611 6.11196
340 6 8.79613 -6.40673 5.92941
341 8 10.2382 -4.455 6.12636
342 7 11.3608 -5.2417 6.01954
343 6 11.1898 -6.54178 5.60889
344 1 8.06679 -4.3976 6.20168
345 1 7.83764 -6.89989 6.04817
346 1 12.3055 -4.77457 6.07122
347 1 9.83947 -8.20412 5.35496
348 1 12.0174 -7.09849 5.20465
349 13 6.72022 6.50317 8.59418
350 5 9.63277 6.34617 9.14945
351 5 6.67556 3.20112 9.0719
352 5 6.56155 6.51086 12.0646
353 11 8.81402 2.87364 11.8409
354 9 10.1554 3.51108 12.1967
355 2 10.4818 4.29253 11.4855
356 2 10.9912 2.79401 12.3778
357 2 10.0109 3.92197 13.1901
358 4 8.40091 2.26519 12.5763
359 4 8.79876 2.30345 11.0455
360 4 8.16868 3.63082 11.6283
361 13 6.60085 6.42707 15.2493
362 5 9.60209 6.37289 15.3391
363 5 6.61707 3.38941 14.9573
364 5 6.8025 6.38709 18.2779
365 11 9.10197 3.08938 17.6087
366 9 10.1022 3.68447 18.5699
367 2 10.1156 3.15654 19.4682
368 2 10.0022 4.77871 18.7197
369 2 11.1087 3.51471 18.1718
370 4 8.18359 3.59365 17.7141
371 4 8.86558 2.14176 17.7988
372 4 9.41053 3.02583 16.6146
373 13 6.72035 6.45469 21.3613
374 5 9.94607 6.53078 -2.9713
375 5 6.91645 3.36177 21.212
376 5 6.73031 6.78588 -0.468405
377 11 9.6413 2.82732 -0.913044
378 9 10.1637 3.90227 0.0431109
379 2 10.2066 3.63086 1.06009
380 2 9.60337 4.75797 -0.0701717
381 2 11.2072 4.15174 -0.270881
382 4 8.77975 2.39431 -0.574092
383 4 10.3449 2.069 -0.858438
384 4 9.50026 3.25632 -1.84065
385 13 6.5647 6.55103 2.57901
386 5 9.71703 6.86712 3.03013
387 5 6.86875 3.5093 2.53237
388 5 6.70323 6.37993 5.71225
389 11 9.23351 3.85464 5.35327
390 9 10.0549 3.00743 6.27339
391 2 9.89437 3.11676 7.3623
392 2 11.103 3.23425 6.08406
393 2 9.9761 1.96361 5.90653
394 4 9.63463 3.67675 4.44041
395 4 9.29536 4.87299 5.55186
396 4 8.22146 3.55789 5.25831
397 13 6.60938 12.6371 8.84739
398 5 9.76529 12.686 8.74823
399 5 6.7027 9.41459 8.75612
400 5 6.52888 12.6034 11.8813
401 5 6.31615 15.6501 8.44019
402 11 9.90911 8.57575 12.4741
403 9 9.30259 9.72917 11.6981
404 2 9.79978 10.6808 11.9717
405 2 8.24393 9.76879 11.812
406 2 9.48524 9.59437 10.6617
407 4 9.78816 8.79981 13.472
408 4 10.8987 8.45561 12.3862
409 4 9.46198 7.66363 12.3709
410 12 9.8318 15.0142 12.368
411 6 9.18093 19.9103 12.2423
412 4 10.8069 15.0701 12.4839
413 4 9.59033 14.0346 12.2697
414 4 9.39284 15.1997 13.2958
415 10 9.32533 15.8325 11.2257
416 3 9.99803 15.7605 10.3191
417 3 8.36082 15.3765 11.0949
418 7 8.08963 18.0018 11.3811
419 6 7.98671 19.3079 11.7826
420 8 9.25709 17.2885 11.5452
421 7 10.4289 17.8605 12.0354
422 6 10.3668 19.234 12.4389
423 1 7.13601 17.5851 11.0502
424 1 7.16938 19.9185 11.6111
425 1 11.4041 17.2247 12.0197
426 1 9.19977 20.9023 12.6612
427 1 11.2292 19.7351 12.9135
428 13 6.47204 12.5184 14.8938
429 5 9.54782 12.3845 14.9346
430 5 6.58406 9.46949 15.0542
431 5 6.35225 12.6164 18.1021
432 5 6.59298 15.6098 14.6645
433 11 8.77007 10.0165 17.9084
434 9 9.86633 9.26133 18.7005
435 2 9.71274 9.45123 19.8055
436 2 10.8816 9.59973 18.562
437 2 9.85533 8.25976 18.5349
438 4 7.87637 9.69836 18.1632
439 4 8.94173 9.88395 16.8715
440 4 8.86833 11.0459 18.1148
441 12 9.13018 15.3374 17.2323
442 6 10.9638 19.764 19.087
443 4 8.88095 14.328 17.1825
444 4 9.78073 15.4266 16.3951
445 4 8.23943 15.7675 17.0137
446 10 9.75974 15.7053 18.5846
447 3 8.99007 15.6273 19.4454
448 3 10.5996 15.104 18.7525
449 7 11.4917 17.4668 18.565
450 6 11.9093 18.761 18.8198
451 8 10.1046 17.1781 18.6357
452 7 9.16319 18.2049 18.8197
453 6 9.57756 19.5439 18.9183
454 1 12.2124 16.6383 18.4219
455 1 12.9837 18.9534 18.7619
456 1 8.09444 17.9706 18.8736
457 1 11.266 20.753 19.2694
458 1 8.82771 20.3328 19.0959
459 13 6.30292 12.685 21.1444
460 5 9.67984 12.5647 21.1666
461 5 6.46298 9.69997 21.0362
462 5 6.41198 12.6256 -0.620977
463 5 6.01147 15.7913 21.0583
464 11 10.3793 9.18317 0.0155021
465 9 9.29016 9.93921 -0.710958
466 2 9.35923 9.75007 -1.7398
467 2 9.3897 10.9731 -0.463293
468 2 8.33376 9.59925 -0.433341
469 4 10.526 9.45424 0.989606
470 4 11.3295 9.27863 -0.481482
471 4 10.24 8.09385 0.038928
472 12 9.96309 14.9549 -0.372909
473 6 10.2596 20.1241 -0.249184
474 4 9.93936 14.021 -0.809781
475 4 9.67328 14.807 0.551411
476 4 10.9751 15.1304 -0.351772
477 10 9.16186 16.0127 -1.07775
478 3 9.24424 15.9163 -2.20419
479 3 8.12686 15.8564 -0.934965
480 7 9.63879 17.9227 0.575664
481 6 9.93153 19.2941 0.850052
482 8 9.56756 17.4762 -0.736543
483 7 9.63024 18.3599 -1.8354
484 6 10.044 19.6775 -1.55766
485 1 9.48177 17.173 1.39755
486 1 10.0774 19.5939 1.9192
487 1 9.6236 17.8926 -2.86932
488 1 10.6902 21.0934 -0.0740397
489 1 10.1829 20.243 -2.46446
490 13 6.42334 12.6369 2.35428
491 5 9.62634 12.42 2.89705
492 5 6.43025 9.65269 2.58212
493 5 6.527 12.4938 5.85387
494 5 6.75705 15.5913 2.85056
495 11 8.97016 9.96218 5.61424
496 9 10.0747 9.19246 6.29542
497 2 9.87559 9.07355 7.36209
498 2 11.092 9.61163 6.09588
499 2 10.1859 8.23438 5.88502
500 4 8.99349 9.84277 4.65089
501 4 9.05233 10.9915 5.86229
502 4 8.01814 9.63715 5.90679
503 12 9.55345 15.1717 5.60196
504 6 8.45386 20.2239 6.38249
505 4 9.83571 15.1792 4.6152
506 4 8.52273 15.2578 5.57102
507 4 9.76105 14.2427 5.904
508 10 10.2246 16.2705 6.45131
509 3 10.2393 15.9598 7.44347
510 3 11.2965 16.2044 6.07549
511 7 9.17815 18.1423 5.15981
512 6 8.63104 19.4532 5.18169
513 8 9.61673 17.6391 6.39687
514 7 9.54233 18.3865 7.59514
515 6 8.95859 19.6647 7.59758
516 1 9.35468 17.5135 4.28001
517 1 8.41411 19.8359 4.26567
518 1 9.98442 17.9452 8.51659
519 1 7.98694 21.1685 6.37292
520 1 8.79898 20.1195 8.55372
521 13 13.0499 0.121991 9.23577
522 5 16.1308 0.15925 8.8673
523 5 12.9839 -2.99992 9.24448
524 5 13.1042 0.0971408 12.1202
525 12 16.4258 -2.15032 11.74
526 6 15.975 -7.22074 11.628
527 4 16.0148 -2.10263 10.7761
528 4 17.4303 -2.41353 11.6506
529 4 16.4468 -1.20742 12.1014
530 10 15.5119 -3.08242 12.5862
531 3 15.7099 -2.87259 13.6374
532 3 14.537 -2.84513 12.4077
533 7 14.5208 -5.3765 12.3035
534 6 14.668 -6.68343 11.8023
535 8 15.7003 -4.56409 12.4532
536 7 16.9592 -5.10602 12.33
537 6 17.1264 -6.44526 11.9265
538 1 13.5139 -4.94553 12.4676
539 1 13.7935 -7.17576 11.4079
540 1 17.8456 -4.52287 12.3502
541 1 16.0491 -8.25494 11.2652
542 1 18.141 -6.86318 11.8608
543 13 12.81 0.265506 15.3736
544 5 15.9867 0.168962 15.3604
545 5 12.4546 -2.82685 15.3732
546 5 12.9383 0.365793 18.3569
547 12 16.266 -2.35001 18.8585
548 6 16.1451 -7.32675 18.3941
549 4 16.2156 -2.57985 19.8704
550 4 16.0434 -1.34208 18.7549
551 4 17.2575 -2.39038 18.4366
552 10 15.2594 -3.1424 18.0586
553 3 14.1909 -2.96507 18.3518
554 3 15.5177 -2.88242 16.9946
555 7 15.6632 -5.28122 19.4714
556 6 16.0723 -6.6389 19.5819
557 8 15.508 -4.66144 18.2121
558 7 15.6638 -5.41322 17.0279
559 6 16.0179 -6.75944 17.1076
560 1 15.541 -4.68303 20.3915
561 1 16.1272 -7.11772 20.6044
562 1 15.5897 -4.8744 16.0439
563 1 16.5189 -8.33853 18.5058
564 1 16.1092 -7.36352 16.1698
565 13 12.7489 0.262778 21.3365
566 5 16.0588 0.350643 21.2953
567 5 12.9113 -2.77543 21.6471
568 5 12.5121 0.415404 -0.215527
569 12 16.4297 -2.10502 -0.712223
570 6 15.9105 -7.27382 -0.562671
571 4 17.4061 -2.52646 -0.595746
572 4 16.4323 -1.1215 -0.409247
573 4 16.2169 -2.19999 -1.74077
574 10 15.5669 -2.99434 0.157576
575 3 15.8156 -2.84492 1.19477
576 3 14.4732 -2.73428 0.00921007
577 7 14.4924 -5.32143 -0.116553
578 6 14.6611 -6.70199 -0.295234
579 8 15.6364 -4.45489 -0.199098
580 7 16.8676 -5.04232 -0.318797
581 6 17.0424 -6.44501 -0.592631
582 1 13.5381 -4.76541 0.035644
583 1 13.8147 -7.35209 -0.410567
584 1 17.6647 -4.34609 -0.178795
585 1 16.0307 -8.32889 -0.542329
586 1 18.0565 -6.82729 -0.583509
587 13 12.8197 0.339257 2.94539
588 5 15.9804 0.228913 2.89978
589 5 12.7098 -2.65155 3.0778
590 5 13.0521 0.347651 6.12964
591 12 16.4428 -2.22522 5.89118
592 6 17.0687 -7.04262 4.61538
593 4 16.2019 -1.28643 6.18054
594 4 16.5027 -2.23692 4.85441
595 4 17.4304 -2.33099 6.15051
596 10 15.5768 -3.3058 6.39256
597 3 15.6836 -3.34431 7.41166
598 3 14.5215 -3.26064 6.15401
599 7 16.5124 -5.71341 6.58894
600 6 17.1149 -6.86478 6.00003
601 8 15.9112 -4.70338 5.78109
602 7 15.9215 -4.82188 4.37023
603 6 16.5285 -5.97565 3.79573
604 1 16.6358 -5.47917 7.65411
605 1 17.5228 -7.64247 6.58769
606 1 15.6052 -4.0208 3.65007
607 1 17.5347 -7.92399 4.18176
608 1 16.6713 -5.97522 2.7291
609 13 12.6529 6.34522 9.17106
610 5 15.6955 6.52595 9.13568
611 5 12.8316 3.3192 9.42145
612 5 12.8914 6.39004 12.3386
613 11 15.208 3.55959 12.5585
614 9 16.3217 2.85358 11.6941
615 2 16.2509 3.08257 10.5696
616 2 16.2784 1.75057 11.8703
617 2 17.3194 3.21234 12.0404
618 4 15.3645 3.29299 13.5238
619 4 14.2738 3.37371 12.2141
620 4 15.2372 4.58384 12.6095
621 13 12.9263 6.41313 15.3107
622 5 16.0119 6.0085 15.3478
623 5 12.6889 3.18582 15.2613
624 5 12.9295 6.63175 18.3436
625 11 16.3237 2.59741 17.968
626 9 15.4685 3.61776 18.6118
627 2 14.4701 3.33871 18.3733
628 2 15.5974 4.65722 18.2149
629 2 15.5852 3.64463 19.6865
630 4 16.5215 2.59674 16.9813
631 4 15.9461 1.64863 18.1088
632 4 17.2885 2.63937 18.3494
633 13 12.8396 6.43196 21.2919
634 5 16.0704 6.42041 21.4862
635 5 12.7852 3.35244 21.5323
636 5 13.211 6.79028 0.171726
637 11 16.1419 4.07639 0.490067
638 9 15.7225 3.0963 -0.489028
639 2 16.0733 2.1363 -0.229429
640 2 16.0416 3.24137 -1.57079
641 2 14.6356 3.14543 -0.492697
642 4 15.7197 3.90138 1.41056
643 4 16.0349 5.01669 0.0492836
644 4 17.1412 3.99934 0.668999
645 13 12.9734 6.39435 3.13452
646 5 16.1869 6.39933 3.06794
647 5 13.1181 3.46531 3.02315
648 5 12.7913 6.42129 6.1416
649 11 16.3286 2.68911 5.5819
650 9 15.4236 3.66993 6.40637
651 2 15.7416 4.66328 6.05908
652 2 15.5189 3.56788 7.52005
653 2 14.4008 3.47839 6.1676
654 4 17.3454 2.83876 5.81687
655 4 16.1739 2.79354 4.55942
656 4 16.1025 1.63963 5.67869
657 13 12.7788 12.8444 9.06342
658 5 15.7644 12.461 8.98378
659 5 12.5413 9.66126 9.15545
660 5 12.7626 12.7308 12.0799
661 5 13.2108 15.9628 9.24513
662 11 15.2073 10.0089 11.6441
663 9 16.2338 9.15265 12.3745
664 2 16.0945 8.06472 12.179
665 2 16.0639 9.31063 13.371
666 2 17.268 9.47253 12.185
667 4 14.2089 9.69171 11.7422
668 4 15.4399 10.0441 10.639
669 4 15.2254 10.9486 12.0275
670 12 16.5023 14.9372 11.7957
671 6 16.2244 19.9987 11.7472
672 4 16.2946 13.9386 11.937
673 4 17.429 15.0696 11.9602
674 4 16.4113 15.067 10.7572
675 10 15.5869 15.8288 12.5915
676 3 14.5544 15.5325 12.3323
677 3 15.7098 15.5769 13.6417
678 7 14.7093 18.1893 12.4934
679 6 14.9124 19.5185 12.0945
680 8 15.7954 17.2984 12.3919
681 7 17.0846 17.7987 12.064
682 6 17.3507 19.1597 11.8176
683 1 13.7394 17.8215 12.7502
684 1 14.0801 20.1932 12.1967
685 1 17.9883 17.1706 12.0614
686 1 16.3286 21.0313 11.4011
687 1 18.3369 19.4843 11.6469
688 13 12.8245 12.5285 15.1731
689 5 15.8435 12.5894 15.063
690 5 12.7252 9.42899 15.0609
691 5 12.8147 12.5335 18.2635
692 5 12.4115 15.7271 15.0755
693 11 16.4618 8.75284 18.6076
694 9 15.442 9.77659 18.1852
695 2 14.4416 9.67223 18.6716
696 2 15.3448 9.87587 17.0947
697 2 15.8148 10.7538 18.5422
698 4 16.6649 8.78058 19.5739
699 4 17.3011 8.92422 18.048
700 4 16.0912 7.82683 18.4234
701 12 16.0306 14.7852 18.674
702 6 17.0855 19.5252 18.3862
703 4 17.0138 14.8426 18.2931
704 4 15.6597 13.8108 18.5289
705 4 16.104 15.0341 19.686
706 10 15.1567 15.8232 17.9341
707 3 15.1633 15.4564 16.8438
708 3 14.0929 15.8448 18.4328
709 7 15.8094 17.7045 19.322
710 6 16.588 18.8966 19.5086
711 8 15.6502 17.2112 17.9979
712 7 16.1415 17.8811 16.896
713 6 17.0011 18.9632 17.0879
714 1 15.541 17.011 20.1791
715 1 16.8518 19.2959 20.4961
716 1 16.1989 17.3325 15.9616
717 1 17.702 20.422 18.4519
718 1 17.6062 19.4357 16.2089
719 13 12.6846 12.5636 21.3053
720 5 16.0672 12.3265 21.4202
721 5 12.8232 9.47821 21.4594
722 5 12.6231 12.4525 -0.325086
723 5 12.7799 15.5128 21.6345
724 11 15.2617 9.9659 -0.55697
725 9 16.4382 9.11577 -0.136699
726 2 16.3479 8.00965 -0.402719
727 2 16.3268 9.06122 0.924096
728 2 17.3766 9.61772 -0.398379
729 4 15.0048 10.0108 -1.56332
730 4 15.5319 10.8996 -0.294463
731 4 14.3818 9.74135 -0.0715474
732 12 15.966 14.9334 -0.676669
733 6 16.1654 19.9439 -1.26993
734 4 15.6359 14.8605 -1.67982
735 4 15.8168 14.0076 -0.392784
736 4 17.0563 15.043 -0.81028
737 10 15.2563 15.9678 0.173935
738 3 14.2153 15.7283 0.0171108
739 3 15.5539 15.835 1.22144
740 7 16.8823 17.7128 -0.535238
741 6 17.1692 18.9614 -0.98415
742 8 15.5657 17.414 -0.196506
743 7 14.5131 18.3411 -0.467282
744 6 14.8463 19.5717 -1.04987
745 1 17.6829 16.9574 -0.401689
746 1 18.1651 19.1587 -1.22389
747 1 13.4441 17.9154 -0.338943
748 1 16.463 20.9587 -1.64519
749 1 14.1563 20.2264 -1.50847
750 13 12.6724 12.7124 2.84553
751 5 15.8518 12.4449 2.4175
752 5 12.8842 9.65404 3.22294
753 5 12.9903 12.6066 5.85554
754 5 12.3386 15.7258 2.77209
755 11 15.026 9.63805 6.46424
756 9 16.4197 9.18036 5.90266
757 2 17.2281 9.79095 6.36759
758 2 16.4613 9.24341 4.84255
759 2 16.5898 8.17067 6.20412
760 4 14.5886 8.88132 7.06998
761 4 14.2383 9.68277 5.73206
762 4 15.0655 10.5119 6.99565
763 12 15.8988 14.8562 5.27421
764 6 15.9155 20.1424 5.79306
765 4 15.9932 13.9465 5.60213
766 4 16.3094 14.8598 4.31948
767 4 14.8661 15.0616 5.08604
768 10 16.4721 15.8659 6.19699
769 3 16.402 15.5544 7.27045
770 3 17.5424 15.9349 5.92424
771 7 16.1306 18.1678 7.20512
772 6 16.0067 19.5282 7.01508
773 8 16.0658 17.3973 6.05309
774 7 15.8566 17.9829 4.80957
775 6 15.7958 19.307 4.63264
776 1 16.357 17.716 8.24184
777 1 16.006 19.9847 7.91313
778 1 15.6535 17.4421 3.93029
779 1 15.7951 21.2167 5.67784
780 1 15.4317 19.6805 3.69947
781 13 19.0948 0.206467 8.92823
782 5 -2.80921 0.0169329 9.02683
783 5 18.927 -3.2056 9.2938
784 5 19.2083 -0.0724454 12.0729
785 12 -2.6704 -2.30516 11.7422
786 6 -2.65604 -7.16826 10.5659
787 4 -1.69152 -2.3322 11.2811
788 4 -2.61987 -1.40242 12.1643
789 4 21.475 -2.24757 11.0182
790 10 -3.01616 -3.40772 12.6909
791 3 -2.41588 -3.29807 13.57
792 3 20.7913 -3.18981 12.9243
793 7 20.8281 -5.64292 11.889
794 6 20.9916 -6.87799 11.2078
795 8 -2.88776 -4.71892 11.9929
796 7 -1.67826 -5.07325 11.4019
797 6 -1.57484 -6.29471 10.6906
798 1 19.8509 -5.29578 12.2041
799 1 20.1318 -7.46621 11.0493
800 1 -0.769193 -4.47923 11.456
801 1 -2.60443 -8.00017 9.895
802 1 -0.610374 -6.58484 10.3077
803 13 18.9739 -0.0669817 15.2941
804 5 -2.69632 -0.361878 15.3173
805 5 18.7573 -3.15854 15.5317
806 5 18.9959 0.0237152 18.4545
807 12 21.4374 -2.39532 18.4818
808 6 -3.03923 -7.35609 17.6792
809 4 20.8659 -2.4972 19.3616
810 4 20.7746 -2.56316 17.6667
811 4 21.6664 -1.4133 18.6417
812 10 -2.11558 -3.15773 18.3111
813 3 -1.61065 -2.86936 17.3666
814 3 -1.49464 -2.85418 19.1991
815 7 -2.52797 -5.42134 19.2482
816 6 -2.87354 -6.79631 19.0431
817 8 -2.41192 -4.60577 18.1144
818 7 -2.45445 -5.09919 16.7985
819 6 -2.6388 -6.47744 16.6141
820 1 -2.51427 -5.07272 20.2442
821 1 -3.05216 -7.42454 19.8703
822 1 -2.49881 -4.41809 16.0349
823 1 -3.12408 -8.40932 17.5189
824 1 -2.50354 -6.88812 15.6663
825 13 19.2185 0.275518 21.4262
826 5 -2.51348 -0.210672 21.3782
827 5 18.7137 -2.95186 21.43
828 5 19.3603 0.212202 -0.259902
829 12 -1.7877 -2.39458 0.0850435
830 6 -2.66948 -7.23343 1.01578
831 4 -2.00302 -2.56794 1.09996
832 4 -1.76681 -1.40505 -0.138185
833 4 -0.808588 -2.68159 0.0273993
834 10 -2.6406 -3.29642 -0.815247
835 3 21.2212 -2.87674 -0.780162
836 3 -2.30926 -3.30755 -1.87919
837 7 -1.37269 -5.36413 0.0814097
838 6 -1.41599 -6.62244 0.651773
839 8 -2.61603 -4.77613 -0.288766
840 7 21.0618 -5.33993 0.0673034
841 6 20.9922 -6.55728 0.745788
842 1 -0.370016 -4.88192 -0.199905
843 1 -0.44679 -7.18863 0.742697
844 1 20.1598 -4.82586 -0.225393
845 1 -2.6863 -8.23103 1.49386
846 1 19.9723 -6.83583 0.963046
847 13 19.2679 0.0533234 2.6976
848 5 -2.63321 0.12441 2.76703
849 5 18.797 -2.81032 2.54821
850 5 19.0148 0.201459 5.91598
851 12 -2.03874 -2.37765 5.86421
852 6 21.6937 -7.26666 4.50592
853 4 -2.11114 -2.25339 4.79645
854 4 -1.07939 -2.7603 5.92652
855 4 -2.01678 -1.4784 6.43265
856 10 -3.06039 -3.42853 6.47112
857 3 -2.84431 -3.45512 7.52561
858 3 20.7624 -3.07223 6.37264
859 7 -2.01352 -5.56908 5.73641
860 6 -2.03783 -6.85227 5.11203
861 8 21.7314 -4.75789 5.80788
862 7 20.5017 -5.28453 5.28555
863 6 20.5633 -6.47493 4.57122
864 1 -1.10742 -5.19538 6.22856
865 1 -1.18713 -7.44458 5.21901
866 1 19.625 -4.61975 5.31896
867 1 21.6352 -8.22968 4.06495
868 1 19.6784 -6.81979 4.07505
869 13 18.9223 6.39662 9.12126
870 5 -2.65083 6.15642 9.11291
871 5 19.0699 3.28995 8.84327
872 5 19.0312 6.33935 12.213
873 11 -2.06853 3.43264 11.6558
874 9 -3.0468 2.64181 12.5764
875 2 -2.98113 1.55224 12.2828
876 2 20.8433 3.04517 12.4714
877 2 -2.66412 2.67394 13.6031
878 4 -2.10418 4.4208 12.0032
879 4 -2.44966 3.44438 10.6996
880 4 -1.03498 3.17088 11.5855
881 13 19.025 6.11666 15.167
882 5 -2.82101 6.13085 14.929
883 5 19.1466 3.08366 15.3158
884 5 18.9738 6.1413 18.2701
885 11 -2.71337 4.00219 17.9233
886 9 -2.59597 2.59151 18.4322
887 2 -1.66684 2.54319 19.0792
888 2 -2.58668 1.87364 17.6458
889 2 21.3919 2.46597 19.1411
890 4 -1.98021 4.15431 17.1688
891 4 -2.62578 4.80926 18.6321
892 4 21.2857 4.08833 17.4223
893 13 19.1997 6.19976 21.3787
894 5 -2.51459 5.98409 21.2467
895 5 19.3366 3.26701 -3.04277
896 5 19.2018 6.02375 -0.158429
897 11 21.5445 3.41514 0.0946189
898 9 -2.13287 2.71481 -0.52201
899 2 -1.92436 3.10989 -1.50619
900 2 -2.28984 1.569 -0.601493
901 2 -1.27702 2.82478 0.0701646
902 4 20.5978 3.0369 -0.0883204
903 4 21.5541 4.34439 -0.185915
904 4 21.6462 3.56485 1.11382
905 13 19.3639 6.32026 3.14945
906 5 -2.63868 5.93717 3.01117
907 5 18.9468 3.02228 2.90945
908 5 19.1686 6.21837 6.03547
909 11 -2.96447 3.68164 6.58921
910 9 -2.38044 2.67275 5.58153
911 2 -2.3994 1.63885 5.92062
912 2 -1.33146 2.87095 5.40256
913 2 -2.78463 2.84421 4.65552
914 4 -2.6486 3.49808 7.5765
915 4 20.8782 3.52175 6.63509
916 4 -2.83136 4.68241 6.27445
917 13 19.1447 12.4774 8.79223
918 5 -2.68178 12.4408 8.37954
919 5 19.1699 9.43498 8.86682
920 5 19.1725 12.3543 12.0178
921 5 19.0972 15.4379 9.42112
922 11 21.2262 8.91305 12.3805
923 9 -2.51488 9.79252 11.8344
924 2 -2.44886 9.70796 10.8157
925 2 -1.61161 9.50533 12.3518
926 2 -2.66717 10.8554 11.9405
927 4 20.4438 8.91879 11.7745
928 4 20.8772 9.13432 13.3186
929 4 21.5133 7.9151 12.4766
930 12 -2.68555 14.7301 11.5195
931 6 -2.29058 19.8957 12.1484
932 4 -3.01849 13.7801 11.716
933 4 -1.71306 14.7382 11.3057
934 4 -3.0951 15.0242 10.6226
935 10 21.6932 15.6962 12.543
936 3 20.6229 15.4974 12.5658
937 3 -2.81226 15.3937 13.4807
938 7 21.073 18.0823 12.5026
939 6 21.3217 19.4729 12.4391
940 8 -2.83631 17.1049 12.3511
941 7 -1.55193 17.6157 12.2183
942 6 -1.24997 18.9836 12.0999
943 1 20.1062 17.7204 12.66
944 1 20.4277 20.1158 12.4508
945 1 -0.72472 16.9259 12.1889
946 1 -2.16251 20.9719 12.0196
947 1 -0.252447 19.3641 11.9266
948 13 18.7244 12.6132 15.2795
949 5 -2.76202 12.0929 15.1427
950 5 18.7552 9.36047 15.3956
951 5 18.874 12.4577 18.3943
952 5 18.766 15.4136 15.1755
953 11 21.5012 9.88016 17.8425
954 9 -2.28302 9.04685 18.4065
955 2 -2.52387 7.966 18.2634
956 2 -2.21035 9.06047 19.4714
957 2 -1.38545 9.38529 17.9245
958 4 21.6308 10.8354 18.0091
959 4 20.5626 9.64017 18.2756
960 4 21.4439 9.78886 16.8352
961 12 -2.56307 14.5498 17.7424
962 6 -2.47177 19.2715 16.53
963 4 -2.92882 14.4848 16.7921
964 4 -2.7627 13.605 18.1187
965 4 -1.50715 14.6203 17.7709
966 10 -3.09329 15.6253 18.6732
967 3 20.6831 15.5564 18.6447
968 3 -2.72858 15.5713 19.6727
969 7 20.8966 17.776 17.7815
970 6 21.0754 18.8798 16.8634
971 8 -2.82815 17.0265 18.1365
972 7 -1.50903 17.4975 17.8967