LAMMPS (23 Jun 2022)
OMP_NUM_THREADS environment is not set. Defaulting to 1 thread. (src/src/comm.cpp:98)
  using 1 OpenMP thread(s) per MPI task
Reading data file ...
  orthogonal box = (-3.1 -69.095259 -3.1) to (21.7 81.495259 21.7)
  2 by 16 by 4 MPI processor grid
  reading atoms ...
  1040 atoms
  scanning bonds ...
  4 = max bonds/atom
  scanning angles ...
  11 = max angles/atom
  scanning dihedrals ...
  21 = max dihedrals/atom
  reading bonds ...
  800 bonds
  reading angles ...
  1344 angles
  reading dihedrals ...
  1536 dihedrals
Finding 1-2 1-3 1-4 neighbors ...
  special bond factors lj:    0        0        0.5     
  special bond factors coul:  0        0        0.8333333333333334
     4 = max # of 1-2 neighbors
     7 = max # of 1-3 neighbors
    14 = max # of 1-4 neighbors
    16 = max # of special neighbors
  special bonds CPU = 0.005 seconds
  read_data CPU = 0.044 seconds
PPPM initialization ...
  using 12-bit tables for long-range coulomb (src/src/kspace.cpp:342)
  G vector (1/distance) = 0.16060837
  grid = 8 30 8
  stencil order = 5
  estimated absolute RMS force accuracy = 0.029618246
  estimated relative force accuracy = 8.9194468e-05
  using double precision FFTW3
  3d grid and FFT values/proc = 504 16
Generated 0 of 78 mixed pair_coeff terms from arithmetic mixing rule
Neighbor list info ...
  update every 1 steps, delay 10 steps, check yes
  max neighbors/atom: 10000, page size: 100000
  master list distance cutoff = 17
  ghost atom cutoff = 17
  binsize = 8.5, bins = 3 18 3
  3 neighbor lists, perpetual/occasional/extra = 3 0 0
  (1) pair buck/coul/long, perpetual, skip from (3)
      attributes: half, newton off
      pair build: skip
      stencil: none
      bin: none
  (2) pair lj/cut/coul/long, perpetual, skip from (3)
      attributes: half, newton off
      pair build: skip
      stencil: none
      bin: none
  (3) neighbor class addition, perpetual
      attributes: half, newton off
      pair build: half/bin/newtoff
      stencil: full/bin/3d
      bin: standard
Setting up Verlet run ...
  Unit style    : real
  Current step  : 0
  Time step     : 1
Per MPI rank memory allocation (min/avg/max) = 19.58 | 19.73 | 20.15 Mbytes
   Step          Temp          Volume        Density         TotEng         PotEng         E_bond        E_angle        E_dihed         E_coul         E_long         E_vdwl        Enthalpy        Press     
         0      298.000000   92619.192734       0.622799  -23223.575832  -24146.500202      22.970839      26.874948       4.403687  -18457.474877  -11846.078831    6102.804032    5940.011180   21590.567550
      1000      100.042489   92619.192734       0.622799  -30165.465561  -30475.303317      11.933977      43.288518      31.492189  -18721.059899  -11926.632132      85.674030  -29464.540946     518.912857
      2000       75.448629   92619.192734       0.622799  -30317.515480  -30551.184537      12.838246      40.160707      17.851903  -18498.750997  -11929.797172    -193.487224  -30997.020193    -503.055142
      3000       60.272059   92619.192734       0.622799  -30405.597902  -30592.264185      11.653508      42.677879      23.195235  -18573.809559  -11929.702917    -166.278331  -31008.451406    -446.308244
      4000       56.905439   92619.192734       0.622799  -30459.465029  -30635.704680       8.933631      40.229039      18.758291  -18778.718806  -11928.774892       3.868057  -29964.881368     366.153242
      5000       48.795015   92619.192734       0.622799  -30495.201002  -30646.322173       9.904044      39.623146      18.199727  -18743.843090  -11928.895490     -41.310510  -30208.074892     212.566982
      6000       44.256807   92619.192734       0.622799  -30529.755373  -30666.821433      11.391843      39.838609      19.941106  -18625.501026  -11931.496394    -180.995571  -31174.180395    -477.084728
      7000       40.826009   92619.192734       0.622799  -30549.264420  -30675.705085      11.214831      39.423434      20.919015  -18623.546578  -11930.745365    -192.970424  -31231.277627    -504.912246
      8000       41.157846   92619.192734       0.622799  -30566.548965  -30694.017350       9.985290      38.920409      21.863690  -18733.296103  -11929.395398    -102.095237  -30541.635182      18.444326
      9000       37.787569   92619.192734       0.622799  -30578.694278  -30695.724707      10.068167      38.629294      16.486425  -18754.837919  -11928.448721     -77.621954  -30557.589056      15.624749
     10000       35.593474   92619.192734       0.622799  -30594.594619  -30704.829802      10.170683      38.998013      20.485551  -18643.915882  -11930.436579    -200.131589  -31181.398008    -434.425923
Loop time of 17.7403 on 128 procs for 10000 steps with 1040 atoms

Performance: 48.703 ns/day, 0.493 hours/ns, 563.689 timesteps/s
99.4% CPU use with 128 MPI tasks x 1 OpenMP threads

MPI task timing breakdown:
Section |  min time  |  avg time  |  max time  |%varavg| %total
---------------------------------------------------------------
Pair    | 0.0020948  | 2.1628     | 13.226     | 281.0 | 12.19
Bond    | 0.00091138 | 0.059533   | 0.27707    |  41.9 |  0.34
Kspace  | 2.7172     | 14.277     | 16.678     | 116.4 | 80.48
Neigh   | 0.10801    | 0.11701    | 0.12448    |   1.8 |  0.66
Comm    | 0.0024051  | 0.18414    | 0.58577    |  48.7 |  1.04
Output  | 0.011927   | 0.012063   | 0.012076   |   0.0 |  0.07
Modify  | 0.8551     | 0.86249    | 0.87017    |   0.4 |  4.86
Other   |            | 0.06564    |            |       |  0.37

Nlocal:          8.125 ave          44 max           0 min
Histogram: 96 0 0 0 2 9 5 0 6 10
Nghost:        852.586 ave        2941 max           0 min
Histogram: 64 16 0 0 16 0 0 16 0 16
Neighs:              0 ave           0 max           0 min
Histogram: 128 0 0 0 0 0 0 0 0 0

Total # of neighbors = 0
Ave neighs/atom = 0
Ave special neighs/atom = 6.8923077
Neighbor list builds = 74
Dangerous builds = 0
PPPM initialization ...
  using 12-bit tables for long-range coulomb (src/src/kspace.cpp:342)
  G vector (1/distance) = 0.16060837
  grid = 8 30 8
  stencil order = 5
  estimated absolute RMS force accuracy = 0.029618246
  estimated relative force accuracy = 8.9194468e-05
  using double precision FFTW3
  3d grid and FFT values/proc = 504 16
Generated 0 of 78 mixed pair_coeff terms from arithmetic mixing rule
Setting up Verlet run ...
  Unit style    : real
  Current step  : 10000
  Time step     : 1
Per MPI rank memory allocation (min/avg/max) = 19.58 | 19.73 | 20.16 Mbytes
   Step          Temp          Volume        Density         TotEng         PotEng         E_bond        E_angle        E_dihed         E_coul         E_long         E_vdwl        Enthalpy        Press     
     10000       35.593474   92619.192734       0.622799  -30594.594619  -30704.829802      10.170683      38.998013      20.485551  -18643.915882  -11930.436579    -200.131589  -31181.398008    -434.425923
     11000      160.795421   95445.642340       0.604356  -29733.383804  -30231.377136      18.131074      61.929378      59.417363  -18194.098669  -11931.944912    -244.811369  -30414.850639    -489.567670
     12000      289.376704   95227.911631       0.605738  -28880.783193  -29777.000684      50.610676     139.345545     106.156809  -18204.243945  -11920.155660      51.285892  -28970.586128     -64.662186
     13000      296.586150   96636.206249       0.596910  -28842.177523  -29760.723112      60.859587     151.860490     114.944695  -18142.738318  -11926.301845     -19.347722  -28689.287123     108.483692
     14000      318.902469   95072.736884       0.606727  -28843.323393  -29830.983996      84.224761     164.114794     110.679020  -18238.830327  -11923.984046     -27.188197  -28882.642008     -28.357395
     15000      299.908998   94858.864363       0.608095  -28898.047795  -29826.884449      93.569348     178.582196     106.994221  -18217.667596  -11925.220281     -63.142336  -29042.578379    -104.473453
     16000      285.440490   95628.845125       0.603198  -28929.225608  -29813.252402     109.878979     191.916863     115.034392  -18263.393411  -11924.677470     -42.011754  -28874.026551      39.579186
     17000      312.780452   94759.943060       0.608729  -28810.090101  -29778.790441     129.361356     195.368895     105.696836  -18183.818139  -11926.089924     -99.309465  -28569.200330     174.308144
     18000      306.923375   95134.238699       0.606334  -28874.939325  -29825.499938     138.369538     216.724892     105.142214  -18288.618880  -11927.586760     -69.530941  -28922.433874     -34.231902
     19000      302.963814   94585.885080       0.609850  -28856.341754  -29794.639361     154.186786     232.025936     115.911135  -18261.325379  -11926.262632    -109.175206  -29011.151822    -112.226903
     20000      279.949506   94925.628367       0.607667  -28993.077432  -29860.098309     158.300187     214.570376      99.652032  -18341.135020  -11921.264035     -70.221851  -29214.780709    -160.144763
     21000      307.869820   93974.606108       0.613816  -28908.482695  -29861.974505     161.653151     237.953852      94.141740  -18365.755842  -11925.176010     -64.791396  -28749.745964     115.821991
     22000      295.297305   94656.307047       0.609396  -28894.226853  -29808.780808     181.730639     235.240624     106.215025  -18346.873141  -11924.914579     -60.179375  -29441.993326    -396.798481
     23000      308.872137   93792.319851       0.615009  -28891.122698  -29847.718746     184.081716     265.663226     100.057637  -18432.654434  -11925.299109     -39.567782  -28956.377573     -47.705648
     24000      292.683161   94721.895311       0.608974  -28919.039518  -29825.497310     200.025940     261.029822     108.252444  -18331.483486  -11926.996854    -136.325176  -29881.625975    -696.808562
     25000      296.768141   93886.154216       0.614395  -28876.457776  -29795.567001     186.457682     267.109112     101.880490  -18433.055740  -11925.049055       7.090510  -28594.493970     205.928248
     26000      295.646484   93558.874593       0.616544  -28922.961383  -29838.596767     189.501666     289.761828      98.183733  -18411.003061  -11926.037021     -79.003913  -28812.396738      81.031783
     27000      305.388723   94172.029072       0.612530  -28829.016784  -29774.824485     224.090900     275.218075     108.679181  -18402.544636  -11928.281180     -51.986824  -29161.252637    -241.907136
     28000      297.108290   92985.060397       0.620349  -28940.951214  -29861.113902     198.444528     263.529798     108.206235  -18492.255260  -11926.234994     -12.804210  -28663.321474     204.727847
     29000      308.568058   92620.596874       0.622790  -28910.515455  -29866.169753     206.340384     274.427333      94.868557  -18522.143271  -11927.983681       8.320926  -27926.449963     728.518422
     30000      289.131559   93467.136673       0.617149  -28977.686349  -29873.144611     203.088698     253.820544     109.717794  -18466.895605  -11926.414202     -46.461840  -28750.946385     166.338678
     31000      284.211178   93170.189767       0.619116  -28940.975570  -29821.195106     236.390387     272.007935     117.541538  -18465.668922  -11927.334545     -54.131499  -29304.978966    -267.887572
     32000      308.820918   93097.167000       0.619602  -28908.426986  -29864.864406     215.965359     257.779663     107.287191  -18517.201061  -11926.954198      -1.741360  -28120.065218     580.648355
     33000      297.158952   94052.813863       0.613306  -28875.201402  -29795.520994     230.263094     277.909608     103.427193  -18412.034068  -11925.891572     -69.195249  -29152.033057    -201.821796
     34000      299.933373   93102.244439       0.619568  -28958.586302  -29887.498445     216.322278     267.266972     104.537292  -18500.633935  -11927.928166     -47.062887  -28997.253727     -28.477982
     35000      295.002157   93021.375343       0.620106  -28944.038107  -29857.677971     206.115416     300.232010     100.258305  -18590.371806  -11925.822415      51.910519  -28297.277541     476.743616
     36000      314.377292   92902.400138       0.620901  -28863.599127  -29837.244981     212.079231     289.951911     123.738146  -18483.151883  -11927.411969     -52.450417  -28064.995331     589.424993
     37000      305.541984   93712.862006       0.615531  -28907.406510  -29853.688870     230.526879     277.497142      96.074116  -18402.648126  -11927.241107    -127.897775  -29231.178225    -236.899321
     38000      304.890773   93204.281099       0.618890  -28921.829111  -29866.094629     219.763040     294.255309     105.788029  -18447.040037  -11928.390227    -110.470743  -29029.099029     -78.916207
     39000      299.667420   93221.442179       0.618776  -28922.657124  -29850.745594     223.735206     294.628009     101.309056  -18464.515596  -11926.952716     -78.949553  -28619.044713     223.320100
     40000      287.677556   92816.447721       0.621476  -28928.171545  -29819.126670     239.022409     284.047119      97.811844  -18525.128318  -11922.464298       7.584574  -28562.359934     270.244369
     41000      289.177865   93894.164337       0.614342  -28972.484584  -29868.086258     230.346564     289.711505     109.354237  -18461.416799  -11926.798570    -109.283197  -29188.339699    -157.633259
     42000      292.586009   92442.450485       0.623990  -28940.334358  -29846.491264     240.003095     287.271190     106.490479  -18552.179996  -11924.413141      -3.662891  -29254.057601    -232.701594
     43000      287.977297   93405.192983       0.617558  -28993.898466  -29885.781906     220.816935     284.598677     109.452249  -18449.082965  -11930.328266    -121.238536  -29618.204758    -458.300996
     44000      307.165812   92594.135808       0.622968  -28904.238299  -29855.549752     240.442839     297.394671     103.913943  -18563.433693  -11926.578061      -7.289452  -28490.189640     306.614020
     45000      296.521666   93141.175222       0.619309  -28941.665020  -29860.010899     233.151570     288.327059     104.730423  -18549.713452  -11926.895315      -9.611185  -28979.093174     -27.553756
     46000      308.619722   92973.305254       0.620427  -28887.343413  -29843.157716     229.487108     285.467787     104.090239  -18471.762796  -11927.219196     -63.220858  -28151.239478     542.881422
     47000      294.748110   94076.402811       0.613152  -28957.774859  -29870.627925     243.389023     260.342680      94.744946  -18474.408621  -11927.633430     -67.062523  -29336.499936    -276.037109
     48000      301.875121   92840.612241       0.621314  -28915.371551  -29850.297410     234.926624     322.784536     103.883729  -18497.987417  -11928.773598     -85.131284  -29035.802539     -88.945579
     49000      292.038259   93110.076907       0.619516  -28986.517240  -29890.977730     253.984408     302.639924      88.309018  -18552.222463  -11927.407651     -56.280966  -29254.183132    -197.115356
     50000      300.919898   93505.521615       0.616896  -28937.920128  -29869.887599     238.816741     304.484319      86.758629  -18530.213664  -11923.812501     -45.921123  -28949.654430      -8.604866
     51000      297.276791   93290.234413       0.618319  -28880.009336  -29800.693884     269.490756     316.475758     100.088277  -18456.041576  -11927.503919    -103.203180  -29027.983346    -108.761044
     52000      290.920373   93191.082855       0.618977  -28981.275536  -29882.273863     253.341568     290.380200      98.220849  -18545.290304  -11927.512581     -51.413594  -28778.015173     149.555521
     53000      306.954111   93223.840039       0.618760  -28913.812386  -29864.468190     249.830946     269.185780      99.584609  -18491.595849  -11927.938966     -63.534709  -28836.191287      57.092217
     54000      289.488345   92762.063526       0.621840  -29011.284804  -29907.848053     263.415321     271.474001      98.367168  -18555.648074  -11927.429527     -58.026942  -29065.007998     -39.711430
     55000      293.765591   93219.082710       0.618791  -28951.828902  -29861.639047     242.601963     306.945672     107.867648  -18494.884472  -11928.335839     -95.834019  -29352.011018    -294.358758
     56000      290.865399   93287.082225       0.618340  -28984.216398  -29885.044468     230.876017     305.457130      98.667076  -18552.052648  -11927.647043     -40.345000  -28737.231283     181.540439
     57000      290.790011   92793.361101       0.621630  -28936.722389  -29837.316977     260.320410     311.338382     112.288494  -18555.869904  -11926.934124     -38.460237  -29079.448022    -105.465201
     58000      320.105988   92653.114181       0.622571  -28901.246690  -29892.634667     255.705144     310.551764      94.313905  -18543.647728  -11925.848321     -83.709432  -29129.779573    -169.126938
     59000      291.252371   92752.929857       0.621901  -28966.340935  -29868.367480     272.053546     287.948980     103.386770  -18551.539858  -11927.867628     -52.349290  -29073.201311     -78.997468
     60000      298.078035   92626.200796       0.622752  -28938.724972  -29861.891020     251.946078     298.209810     109.896567  -18635.720970  -11927.045959      40.823454  -28452.077830     360.250371
     61000      296.992429   92586.655376       0.623018  -28934.270029  -29854.073889     272.008443     285.301183     108.384260  -18497.639762  -11927.102142     -95.025871  -29382.739434    -332.130328
     62000      299.571309   93649.017081       0.615950  -28938.652766  -29866.443577     254.693010     292.083110     102.641633  -18511.995143  -11928.211450     -75.654737  -28977.599554     -28.516258
     63000      286.898504   93219.921722       0.618786  -28969.998128  -29858.540481     274.851939     287.614493      97.303518  -18519.925160  -11925.262924     -73.122348  -29386.466103    -306.335260
     64000      294.566431   92907.987899       0.620863  -28952.581375  -29864.871770     263.457882     302.626003     118.972950  -18484.578906  -11929.770704    -135.578996  -28756.572168     144.659689
     65000      281.325433   92914.641985       0.620819  -29071.211488  -29942.493696     229.031964     287.725204     102.116641  -18567.731517  -11926.513080     -67.122908  -29032.063639      28.890021
     66000      300.041567   92809.582883       0.621522  -28921.175585  -29850.422814     249.799340     320.767996     100.089253  -18545.562064  -11927.533044     -47.984293  -29184.562521    -194.592242
     67000      292.606538   92876.073742       0.621077  -29003.652322  -29909.872806     239.764364     294.193079     104.214265  -18577.244937  -11924.712750     -46.086827  -29387.355779    -283.280040
     68000      292.237750   92803.112583       0.621565  -28955.968731  -29861.047056     258.949215     296.128188     115.840636  -18535.101987  -11928.697968     -68.165141  -28842.190751      84.065885
     69000      295.649041   93302.604862       0.618237  -28917.944459  -29833.587764     264.956463     301.011498     118.532786  -18479.047773  -11927.882237    -111.158502  -28717.768139     147.110287
     70000      276.708578   92941.102490       0.620642  -28978.961470  -29835.944992     260.130524     315.403840     115.874274  -18507.943832  -11924.900228     -94.509569  -29256.031050    -204.411411
     71000      298.366243   92917.216537       0.620802  -28932.853881  -29856.912527     246.335309     307.795928     112.117147  -18605.707318  -11927.857104      10.403510  -28588.139000     254.382922
     72000      289.505836   93287.042452       0.618340  -28975.496331  -29872.113750     247.656382     288.998810     108.262450  -18525.021196  -11927.422292     -64.587905  -28757.531513     160.209840
     73000      299.906281   92743.280966       0.621966  -28932.635251  -29861.463491     262.770428     290.453946     122.991226  -18523.365516  -11925.909068     -88.404507  -29261.219962    -242.934395
     74000      308.110413   93090.313539       0.619647  -28923.695269  -29877.932211     263.910112     289.575126     104.523034  -18584.851033  -11923.854184     -27.235266  -28804.770423      87.597602
     75000      304.953706   93146.617576       0.619273  -28943.500120  -29887.960545     252.522610     300.461384     107.811932  -18542.488029  -11925.825552     -80.442890  -29361.613698    -307.787723
     76000      289.540268   92976.318346       0.620407  -28980.371670  -29877.095727     247.628160     315.041269     100.573346  -18517.780150  -11924.752785     -97.805566  -29155.260048    -128.977132
     77000      294.831781   92923.339450       0.620761  -28941.450874  -29854.563075     270.079198     295.447954     112.064496  -18544.157686  -11927.035033     -60.962005  -29244.008600    -223.258267
     78000      296.829120   93500.041274       0.616932  -28976.521345  -29895.819427     248.271290     295.059948     103.725833  -18528.081571  -11927.918147     -86.876779  -29084.871571     -79.458823
     79000      296.723389   92437.611626       0.624023  -28965.476375  -29884.447002     239.538109     289.982036     108.999758  -18602.434605  -11925.148856       4.616554  -28958.370935       5.270677
     80000      290.543991   93058.142438       0.619861  -28955.109511  -29854.942162     270.029887     307.651581     101.340675  -18548.589992  -11926.835439     -58.538874  -29096.731498    -104.351913
     81000      293.944976   92620.467438       0.622791  -28985.090444  -29895.456155     240.878649     292.161032     101.893901  -18554.503382  -11924.464994     -51.421361  -28994.570997      -7.018605
     82000      294.772401   92510.745013       0.623529  -28958.534278  -29871.462574     257.581980     307.114509     102.272042  -18577.049076  -11922.840297     -38.541731  -29522.987241    -418.369185
     83000      293.538916   93064.584875       0.619819  -28928.765135  -29837.873251     263.021233     289.176178     126.783372  -18561.907617  -11928.268112     -26.678305  -28876.136829      38.775647
     84000      298.742036   93116.985073       0.619470  -28979.408601  -29904.631102     265.446196     269.123616     107.753749  -18508.481410  -11926.773117    -111.700135  -29003.475922     -17.722418
     85000      303.555765   92943.588878       0.620625  -28912.727768  -29852.858683     265.765959     294.854123     101.865388  -18608.285202  -11927.142043      20.083091  -28617.523475     217.784688
     86000      302.863115   93207.055109       0.618871  -28939.626494  -29877.612231     246.532457     293.468386     103.721667  -18515.288320  -11925.267068     -80.779353  -29083.309727    -105.701564
     87000      286.495308   92038.031830       0.626732  -28977.182143  -29864.475771     244.573664     287.431869     107.524816  -18610.301101  -11926.332219      32.627200  -28435.633395     403.454296
     88000      299.930476   93447.418712       0.617279  -28943.631191  -29872.534364     262.494223     285.604916     111.680172  -18540.879484  -11927.369197     -64.064994  -28997.766223     -39.722375
     89000      302.979414   92915.860429       0.620811  -28877.339558  -29815.685479     292.710399     279.268061     120.988438  -18497.852685  -11927.301140     -83.498553  -29328.593727    -333.008627
     90000      294.212909   92756.135188       0.621880  -28950.087975  -29861.283492     240.124870     304.690227     109.840294  -18581.434727  -11925.514273      -8.989882  -28632.009153     235.134427
     91000      301.334304   93161.013253       0.619177  -28918.854259  -29852.105172     266.351769     292.614213     114.011317  -18549.145762  -11927.021538     -48.915172  -28664.384425     187.295013
     92000      303.221727   92875.211500       0.621082  -28945.602585  -29884.698965     271.690676     281.563770      99.556566  -18549.005765  -11924.804650     -63.699562  -29581.412281    -469.409031
     93000      292.950732   92853.607005       0.621227  -28927.110868  -29834.397342     276.471600     310.191131     118.223206  -18573.028854  -11930.101542     -36.152883  -29063.723581    -100.882642
     94000      305.117823   92806.584443       0.621542  -28936.388400  -29881.357105     246.029303     300.421082     121.222796  -18520.766221  -11930.377423     -97.886643  -29048.511113     -82.839777
     95000      299.698190   93035.440150       0.620013  -28913.947425  -29842.131194     252.244031     306.047323     110.116719  -18507.165527  -11927.559933     -75.813806  -28969.241863     -40.752771
     96000      295.235371   92659.856755       0.622526  -28964.806575  -29879.168717     247.407026     310.418221     113.308886  -18584.269091  -11929.306171     -36.727589  -28590.416497     277.049147
     97000      298.325111   92099.482615       0.626314  -28935.876445  -29859.807703     252.668120     303.694682     114.744463  -18553.024178  -11928.011308     -49.879482  -29036.764637     -75.111643
     98000      304.558685   92465.362139       0.623835  -28969.150183  -29912.387204     251.402581     271.541403     122.412109  -18698.603816  -11927.018467      67.878987  -28304.963311     492.532988
     99000      304.843007   93041.097118       0.619975  -28902.716507  -29846.834091     255.339574     308.424669     102.100887  -18500.111563  -11926.605616     -85.982042  -29128.583680    -166.457130
    100000      309.970816   92951.200623       0.620575  -28917.014785  -29877.013509     275.604934     291.841502     112.864153  -18546.878907  -11928.513181     -81.932010  -29136.996774    -162.276724
    101000      295.653241   92980.415247       0.620380  -28990.943764  -29906.600075     270.813224     281.259064     110.322807  -18572.274189  -11929.322578     -67.398403  -29022.187428     -23.040643
    102000      298.050235   93146.462082       0.619274  -28921.254864  -29844.334814     276.299411     300.432143     114.079030  -18490.693704  -11926.376968    -118.074725  -29506.583351    -430.881063
    103000      292.585421   94281.261972       0.611820  -28945.562430  -29851.717516     275.475015     292.877156     106.385319  -18469.422789  -11931.156593    -125.875622  -29272.483139    -237.761294
    104000      300.901283   92273.998470       0.625129  -28922.088545  -29853.998366     258.932338     318.866247     102.800937  -18598.439533  -11926.779064      -9.379291  -28487.574476     322.885552
    105000      303.253667   93138.084686       0.619329  -28889.673446  -29828.868744     269.220380     297.294160     125.882899  -18562.422440  -11926.044376     -32.799367  -28657.485373     170.937251
    106000      298.616270   92291.916302       0.625008  -28916.322111  -29841.155107     267.116928     303.273677     120.193476  -18565.610599  -11929.872315     -36.256275  -29248.960362    -247.134078
    107000      297.740203   92520.127442       0.623466  -28950.221417  -29872.341179     258.437848     289.372916      97.617616  -18552.180872  -11928.199454     -37.389233  -28897.184284      39.306821
    108000      307.950476   93083.712236       0.619691  -28924.564089  -29878.305697     260.819250     298.797786     103.197455  -18522.999126  -11927.054681     -91.066380  -29075.317491    -111.049738
    109000      294.520864   92223.608398       0.625471  -28958.340162  -29870.489432     248.218656     295.035576     118.595405  -18572.594055  -11926.857792     -32.887222  -28765.502351     143.375251
    110000      302.580652   92497.103212       0.623621  -28922.341116  -29859.452045     265.655544     302.187051     115.041507  -18602.877877  -11926.587869     -12.870401  -28293.364800     466.262267
Loop time of 174.701 on 128 procs for 100000 steps with 1040 atoms

Performance: 49.456 ns/day, 0.485 hours/ns, 572.407 timesteps/s
99.5% CPU use with 128 MPI tasks x 1 OpenMP threads

MPI task timing breakdown:
Section |  min time  |  avg time  |  max time  |%varavg| %total
---------------------------------------------------------------
Pair    | 0.022319   | 20.983     | 121.63     | 863.9 | 12.01
Bond    | 0.0094442  | 0.54777    | 2.7934     | 127.8 |  0.31
Kspace  | 27.338     | 132.95     | 156.28     | 365.6 | 76.10
Neigh   | 3.8985     | 4.1713     | 4.3323     |   7.7 |  2.39
Comm    | 0.050243   | 1.9321     | 5.967      | 153.5 |  1.11
Output  | 0.092491   | 0.092771   | 0.12076    |   0.8 |  0.05
Modify  | 12.9       | 13.195     | 13.721     |   6.9 |  7.55
Other   |            | 0.8269     |            |       |  0.47

Nlocal:          8.125 ave          44 max           0 min
Histogram: 96 0 0 0 2 7 5 5 5 8
Nghost:        911.695 ave        3158 max           0 min
Histogram: 64 16 0 0 16 0 0 16 0 16
Neighs:              0 ave           0 max           0 min
Histogram: 128 0 0 0 0 0 0 0 0 0

Total # of neighbors = 0
Ave neighs/atom = 0
Ave special neighs/atom = 6.8923077
Neighbor list builds = 2763
Dangerous builds = 0
PPPM initialization ...
  using 12-bit tables for long-range coulomb (src/src/kspace.cpp:342)
  G vector (1/distance) = 0.16062035
  grid = 8 30 8
  stencil order = 5
  estimated absolute RMS force accuracy = 0.029612112
  estimated relative force accuracy = 8.9175995e-05
  using double precision FFTW3
  3d grid and FFT values/proc = 504 16
Generated 0 of 78 mixed pair_coeff terms from arithmetic mixing rule
Setting up Verlet run ...
  Unit style    : real
  Current step  : 110000
  Time step     : 1
Per MPI rank memory allocation (min/avg/max) = 19.58 | 19.73 | 20.16 Mbytes
   Step          Temp          Volume        Density         TotEng         PotEng         E_bond        E_angle        E_dihed         E_coul         E_long         E_vdwl        Enthalpy        Press     
    110000      302.580652   92497.103212       0.623621  -28922.336595  -29859.447524     265.655544     302.187051     115.041507  -18601.986433  -11927.474792     -12.870401  -28293.342702     466.275297
    111000      302.904490   92497.103212       0.623621  -28998.953853  -29937.067731     244.069127     288.423224     111.834245  -18612.091190  -11929.720937     -39.582200  -29295.732299    -220.002864
    112000      298.324072   92497.103212       0.623621  -28950.017230  -29873.945270     245.089496     300.532783     111.694701  -18577.332840  -11925.528496     -28.400913  -28941.814557       6.080669
    113000      298.463578   92497.103212       0.623621  -28938.981015  -29863.341113     245.097652     288.438901     120.765781  -18597.570689  -11929.658273       9.585515  -28548.238507     289.658741
    114000      305.490583   92497.103212       0.623621  -28902.274732  -29848.397900     243.660599     320.616274     115.374114  -18578.018517  -11930.470997     -19.559373  -28717.643354     136.867864
    115000      287.018104   92497.103212       0.623621  -28972.471534  -29861.384296     243.906873     281.859567     109.068443  -18533.024753  -11928.027237     -35.167188  -28787.384542     137.205612
    116000      311.311143   92497.103212       0.623621  -28919.648621  -29883.798421     250.538109     274.688643     107.938571  -18541.070590  -11928.084977     -47.808177  -28769.643478     111.199318
    117000      293.737872   92497.103212       0.623621  -28972.313265  -29882.037561     264.298588     283.248146     102.555819  -18631.447974  -11928.888109      28.195969  -28808.647070     121.326303
    118000      301.710826   92497.103212       0.623621  -28924.166986  -29858.584012     254.099122     288.952856     121.072468  -18545.952878  -11926.746113     -50.009468  -29017.962715     -69.531091
    119000      307.552396   92497.103212       0.623621  -28902.073747  -29854.582474     258.717675     293.587665     114.862200  -18551.536549  -11927.123659     -43.089807  -29149.715791    -183.577884
    120000      295.378029   92497.103212       0.623621  -28956.089404  -29870.893366     262.032153     286.129524     103.131059  -18586.373022  -11929.844863      -5.968217  -28696.685548     192.296954
    121000      291.009943   92497.103212       0.623621  -28952.049847  -29853.325579     249.782177     303.496049     129.788195  -18566.494947  -11929.554331     -40.342722  -28492.934374     340.343850
    122000      291.039217   92497.103212       0.623621  -28956.936019  -29858.302413     244.634886     299.784359     121.262613  -18587.748090  -11925.979490     -10.256691  -29035.258707     -58.060873
    123000      313.160065   92497.103212       0.623621  -28885.005181  -29854.881205     263.138372     304.629559     117.588790  -18583.486476  -11928.343080     -28.408369  -28930.719517     -33.888192
    124000      301.647607   92497.103212       0.623621  -28966.471859  -29900.693092     253.850709     279.649187     103.019874  -18522.355672  -11928.679877     -86.177312  -29228.390316    -194.161037
    125000      313.810072   92497.103212       0.623621  -28899.878217  -29871.767353     261.209100     305.322375     106.643864  -18564.215754  -11927.841285     -52.885654  -29017.192216     -86.965263
    126000      305.245226   92497.103212       0.623621  -28933.957558  -29879.320840     247.522813     292.787651     105.556012  -18594.278791  -11928.898146      -2.010378  -28946.869519      -9.571681
    127000      299.128177   92497.103212       0.623621  -28977.234723  -29903.653125     236.246497     291.766200     115.266599  -18575.175428  -11928.493747     -43.263246  -28646.540380     245.144833
    128000      299.214190   92497.103212       0.623621  -28965.529190  -29892.213981     240.880673     293.342085     122.202241  -18606.626708  -11929.888036     -12.124237  -28451.183843     381.285942
    129000      297.990506   92497.103212       0.623621  -28945.185820  -29868.080786     260.543999     310.268507     110.174754  -18602.502098  -11927.713584     -18.852365  -28862.632539      61.197026
    130000      283.017288   92497.103212       0.623621  -29067.889969  -29944.411954     240.682415     264.560083     113.053585  -18577.912195  -11927.397294     -57.398548  -29549.196792    -356.794374
    131000      302.515685   92497.103212       0.623621  -28945.600679  -29882.510403     261.801480     302.443290     102.218741  -18537.673338  -11930.328288     -80.972287  -28898.960511      34.574514
    132000      289.076243   92497.103212       0.623621  -28979.733956  -29875.020901     250.456633     303.122900     116.383042  -18567.032111  -11927.058216     -50.893149  -28763.547942     160.259422
    133000      299.917877   92497.103212       0.623621  -28982.530449  -29911.394603     241.070714     295.121923     109.458622  -18644.422412  -11929.026895      16.403444  -28680.398934     223.971112
    134000      301.017010   92497.103212       0.623621  -28918.447204  -29850.715439     261.433069     312.907270     112.866173  -18581.617268  -11929.145693     -27.158990  -28985.678186     -49.838554
    135000      291.639305   92497.103212       0.623621  -28936.009042  -29839.233948     264.254890     320.660057     116.366835  -18534.487564  -11928.799154     -77.229012  -28917.730964      13.549601
    136000      303.814056   92497.103212       0.623621  -28946.918280  -29887.849138     246.574012     302.154512     120.103871  -18585.079062  -11930.191727     -41.410743  -28824.503232      90.746688
    137000      299.020703   92497.103212       0.623621  -28956.073361  -29882.158912     234.752999     306.733316     117.317283  -18596.925557  -11928.098953     -15.938000  -28630.252109     241.532395
    138000      293.713071   92497.103212       0.623621  -28919.870814  -29829.518300     267.761972     300.197535     122.527625  -18483.617781  -11930.033337    -106.354314  -29040.829828     -89.667325
    139000      302.292157   92497.103212       0.623621  -28995.332140  -29931.549585     241.816427     300.709700     111.829977  -18619.559653  -11930.628136     -35.717899  -29420.900923    -315.475576
    140000      295.990400   92497.103212       0.623621  -28933.063889  -29849.764404     272.607353     282.720161     124.427724  -18661.309056  -11924.895183      56.684597  -29181.417218    -184.105162
    141000      298.463733   92497.103212       0.623621  -28935.837700  -29860.198278     272.498645     326.895204     112.757751  -18576.780036  -11929.516106     -66.053736  -28670.803635     196.470647
    142000      296.720138   92497.103212       0.623621  -28948.174810  -29867.135369     266.947230     302.471906     113.395723  -18537.517017  -11928.380275     -84.052937  -29511.604086    -417.672025
    143000      285.564861   92497.103212       0.623621  -29016.664245  -29901.076221     262.754986     307.084044     111.367560  -18634.596696  -11931.216630     -16.469484  -28726.130264     215.373821
    144000      306.385124   92497.103212       0.623621  -28926.764844  -29875.658460     263.752591     303.137751     118.754041  -18565.741748  -11929.429402     -66.131694  -28742.209835     136.811252
    145000      292.437873   92497.103212       0.623621  -28969.287458  -29874.985576     257.446921     310.432612     129.411664  -18546.146907  -11927.350426     -98.779439  -28763.179719     152.788363
    146000      310.055816   92497.103212       0.623621  -28920.012186  -29880.274160     270.180102     306.487329     104.155080  -18575.110584  -11927.593957     -58.392130  -28762.894583     116.471810
    147000      299.396167   92497.103212       0.623621  -28955.085106  -29882.333490     251.131963     306.059340     114.318812  -18602.833461  -11927.046078     -23.964066  -28805.235890     111.083730
    148000      282.548688   92497.103212       0.623621  -28992.596691  -29867.667393     257.771542     320.264712     117.447743  -18602.748277  -11929.126163     -31.276950  -29296.263691    -225.109373
    149000      307.815598   92497.103212       0.623621  -28903.610239  -29856.934121     262.559680     316.850405     115.223382  -18569.789186  -11929.876113     -51.902289  -28616.964475     212.491473
    150000      297.720495   92497.103212       0.623621  -28970.142195  -29892.200920     265.649190     299.361901     101.875121  -18592.949407  -11929.100495     -37.037230  -29103.928775     -99.176444
    151000      297.404321   92497.103212       0.623621  -28984.196863  -29905.276376     242.285043     291.870746     115.403817  -18510.047641  -11928.940632    -115.847710  -28857.104751      94.213812
    152000      300.524268   92497.103212       0.623621  -28952.799823  -29883.542005     247.469549     303.444031     106.570483  -18578.883825  -11929.735587     -32.406656  -28690.184133     194.677898
    153000      297.071408   92497.103212       0.623621  -28957.535624  -29877.584086     271.053641     300.932756      93.566830  -18588.843434  -11928.790185     -25.503694  -28906.422945      37.890002
    154000      296.865204   92497.103212       0.623621  -28957.626979  -29877.036814     257.833283     294.026155     119.781712  -18492.424443  -11930.204571    -126.048951  -29431.667740    -351.408017
    155000      296.574923   92497.103212       0.623621  -28988.418178  -29906.928996     239.965806     283.463357     101.313770  -18545.353852  -11926.271113     -60.046964  -29007.687213     -14.284201
    156000      304.582077   92497.103212       0.623621  -28978.232600  -29921.542066     252.420467     284.037087     100.642873  -18578.888796  -11928.379648     -51.374049  -28930.635065      35.284214
    157000      309.554463   92497.103212       0.623621  -28886.507280  -29845.216535     269.383757     303.839430     104.784607  -18520.299034  -11925.607226     -77.318069  -29169.050241    -209.450051
    158000      290.308842   92497.103212       0.623621  -28990.661443  -29889.765823     257.131821     314.372377     101.272823  -18541.408336  -11927.663193     -93.471315  -28694.428727     219.598313
    159000      309.646021   92497.103212       0.623621  -28931.767113  -29890.759928     259.270527     300.578716     107.744566  -18633.836298  -11927.358603       2.841164  -28983.763433     -38.545048
    160000      306.584315   92497.103212       0.623621  -28971.643396  -29921.153919     243.345769     292.415832     102.102676  -18539.171382  -11930.737143     -89.109670  -28539.140284     320.616017
    161000      285.833863   92497.103212       0.623621  -29012.918852  -29898.163944     248.966820     282.848275     121.316124  -18501.925235  -11931.222808    -118.147121  -29231.347119    -161.921612
    162000      290.612925   92497.103212       0.623621  -28969.925944  -29869.972088     258.251719     311.135852     102.077345  -18570.727470  -11927.362499     -43.347034  -29444.974749    -352.155283
    163000      301.904120   92497.103212       0.623621  -28934.229365  -29869.245036     273.121599     290.999447     110.208967  -18575.994728  -11929.278705     -38.301617  -28713.605288     163.549374
    164000      294.610068   92497.103212       0.623621  -28913.125967  -29825.551509     272.844478     306.024755     114.174251  -18575.364498  -11927.053338     -16.177157  -29222.770104    -229.540245
    165000      295.662107   92497.103212       0.623621  -28971.375985  -29887.059754     266.725475     296.329101     107.604590  -18586.111609  -11926.190508     -45.416803  -29132.283659    -119.281402
    166000      300.261480   92497.103212       0.623621  -28961.391505  -29891.319816     264.884874     276.103319     128.559940  -18575.058051  -11926.004124     -59.805774  -29098.209315    -101.423505
    167000      303.947538   92497.103212       0.623621  -28917.161511  -29858.505772     269.295564     286.596426     119.691508  -18559.647239  -11927.371068     -47.070963  -29229.879858    -231.819167
    168000      297.888499   92497.103212       0.623621  -28994.544817  -29917.123862     249.229631     291.365438      99.900864  -18564.218793  -11927.515595     -65.885406  -28759.854288     173.976882
    169000      294.281271   92497.103212       0.623621  -28969.078120  -29880.485358     266.429641     287.730791     118.164428  -18593.785370  -11929.884945     -29.139903  -28784.104522     137.121552
    170000      295.419836   92497.103212       0.623621  -28943.905931  -29858.839374     268.189963     288.694756     122.220600  -18506.992042  -11927.236878    -103.715773  -28938.317575       4.142667
    171000      292.912824   92497.103212       0.623621  -28951.494924  -29858.663995     266.067221     287.488731     110.663367  -18580.566111  -11924.469310     -17.847893  -28914.460104      27.454037
    172000      297.509228   92497.103212       0.623621  -28993.384530  -29914.788950     231.712088     294.017262     103.959521  -18581.040834  -11927.389884     -36.047103  -28777.249165     160.221877
    173000      301.074930   92497.103212       0.623621  -28921.513799  -29853.961417     267.754275     282.588552     107.199440  -18524.181182  -11926.245523     -61.076978  -29237.642368    -234.347176
    174000      300.103596   92497.103212       0.623621  -28921.430520  -29850.869854     257.796811     299.122878     108.341437  -18559.730225  -11926.151153     -30.249601  -28816.902109      77.487264
    175000      298.196152   92497.103212       0.623621  -28958.744004  -29882.275868     270.390232     295.326214     104.384662  -18540.953665  -11925.889641     -85.533670  -29315.752236    -264.651408
    176000      291.375949   92497.103212       0.623621  -28983.404358  -29885.813631     267.073144     290.494493     105.468431  -18568.921452  -11928.300106     -51.628141  -29110.443869     -94.174819
    177000      282.953637   92497.103212       0.623621  -29034.287739  -29910.612595     255.945683     279.698078      95.570327  -18591.578981  -11929.212619     -21.035083  -28734.146372     222.495810
    178000      303.238909   92497.103212       0.623621  -28943.622521  -29882.772114     249.155157     294.198962     132.327290  -18578.470275  -11929.572364     -50.410883  -28658.787430     211.149215
    179000      318.457574   92497.103212       0.623621  -28904.399197  -29890.681933     251.017240     274.488987     118.691094  -18569.242043  -11931.259869     -34.377343  -28649.787594     188.744442
    180000      286.979616   92497.103212       0.623621  -28946.613505  -29835.407067     269.981555     281.878059     105.153679  -18530.092784  -11927.034899     -35.292677  -29087.385452    -104.354720
    181000      302.167146   92497.103212       0.623621  -28951.567703  -29887.397981     257.587208     281.161945     116.121908  -18537.384346  -11927.853908     -77.030789  -29200.122589    -184.254576
    182000      301.654433   92497.103212       0.623621  -28906.764427  -29841.006800     264.811787     291.842476     104.049502  -18598.931573  -11927.942855      25.163863  -28734.911908     127.394853
    183000      296.454757   92497.103212       0.623621  -28949.198529  -29867.337186     244.523010     297.310769     118.810190  -18541.074298  -11927.716786     -59.190070  -28865.328847      62.172879
    184000      293.557900   92497.103212       0.623621  -28955.751754  -29864.918666     248.495044     297.343089     123.247916  -18604.284872  -11926.982005      -2.737837  -28790.323785     122.632312
    185000      294.348658   92497.103212       0.623621  -29021.387910  -29933.003846     245.577512     274.607987     108.915006  -18614.631125  -11930.983025     -16.490202  -28604.777537     308.834676
    186000      310.434640   92497.103212       0.623621  -28915.670619  -29877.105835     260.776303     308.098121      92.580180  -18581.933709  -11925.971722     -30.655007  -28557.759527     265.320702
    187000      301.158420   92497.103212       0.623621  -28934.991944  -29867.698133     263.485457     297.547537     109.024664  -18598.542102  -11927.255373     -11.958317  -28992.351502     -42.520834
    188000      309.319295   92497.103212       0.623621  -28969.448802  -29927.429726     248.648101     270.487987     109.914462  -18585.773271  -11929.411881     -41.295124  -28635.935440     247.234581
    189000      298.314407   92497.103212       0.623621  -28982.441816  -29906.339923     256.606323     287.967050     107.081873  -18585.088784  -11927.923186     -44.983199  -29078.714231     -71.367067
    190000      304.692933   92497.103212       0.623621  -28952.004158  -29895.656954     251.988953     304.459206      92.638682  -18506.027675  -11926.712415    -112.003704  -29398.610820    -331.071027
    191000      298.591661   92497.103212       0.623621  -28948.779211  -29873.535991     262.202695     301.314962     113.868735  -18563.899365  -11927.990639     -59.032379  -28680.380379     198.964961
    192000      295.905750   92497.103212       0.623621  -28967.146575  -29883.584924     255.651288     301.509694     105.760390  -18635.829958  -11930.202617      19.526280  -28635.144897     246.113965
    193000      289.416904   92497.103212       0.623621  -29004.970968  -29901.312961     249.975557     298.715971     115.154473  -18575.621837  -11928.499606     -61.037518  -29477.818095    -350.523172
    194000      307.103706   92497.103212       0.623621  -28921.464899  -29872.584008     263.075799     276.183216     116.598699  -18538.858443  -11929.373000     -60.210279  -28571.702742     259.279868
    195000      284.145184   92497.103212       0.623621  -29028.417266  -29908.432417     240.515011     302.071945     112.022608  -18634.610961  -11928.495383       0.064362  -28906.836019      90.128589
    196000      291.596681   92497.103212       0.623621  -28972.969898  -29876.062795     226.009697     299.366503     121.193064  -18567.687324  -11928.388793     -26.555942  -28732.563994     178.213709
    197000      290.217694   92497.103212       0.623621  -28946.361924  -29845.184010     267.737302     311.262176     103.678104  -18478.792152  -11929.837337    -119.232103  -29231.840356    -211.626126
    198000      304.882282   92497.103212       0.623621  -28924.538084  -29868.777304     263.663986     285.082114     104.841668  -18598.378057  -11929.451166       5.464151  -28392.014899     394.761235
    199000      309.398002   92497.103212       0.623621  -28911.506169  -29869.730853     267.125570     300.901623     110.034299  -18605.085721  -11927.401530     -15.305094  -28593.621234     235.649176
    200000      292.779184   92497.103212       0.623621  -28971.166138  -29877.921318     264.022742     281.584947     112.362966  -18630.388032  -11927.516591      22.012649  -28707.607836     195.376659
    201000      306.746100   92497.103212       0.623621  -28919.859957  -29869.871538     267.118830     278.695719     108.318918  -18537.271743  -11927.334661     -59.398600  -29180.848924    -193.472003
    202000      300.646664   92497.103212       0.623621  -28938.432053  -29869.553303     268.830517     288.531451      91.596724  -18547.845888  -11926.479242     -44.186866  -29005.396524     -49.640988
    203000      301.284400   92497.103212       0.623621  -28958.966531  -29892.062891     249.742436     295.878477      98.741477  -18592.219540  -11928.579549     -15.626191  -28768.493590     141.198235
    204000      306.373381   92497.103212       0.623621  -28913.401372  -29862.258618     266.365207     319.932820     104.935347  -18573.085325  -11930.862331     -49.544337  -28805.430855      80.038909
    205000      298.178146   92497.103212       0.623621  -28964.579659  -29888.055757     265.414897     288.194995     104.302891  -18542.730293  -11928.101799     -75.136449  -28863.636062      74.829830
    206000      293.293506   92497.103212       0.623621  -28937.380063  -29845.728129     272.910386     285.974451     106.524805  -18565.589291  -11926.185883     -19.362597  -28552.669665     285.187117
    207000      298.953645   92497.103212       0.623621  -28943.260766  -29869.138634     243.969503     317.675806     107.748093  -18549.046715  -11930.063373     -59.421949  -28881.222150      45.989436
    208000      291.697266   92497.103212       0.623621  -28955.946636  -29859.351050     262.827731     296.722781     116.236171  -18560.857437  -11927.892897     -46.387400  -29382.476917    -316.188338
    209000      297.530128   92497.103212       0.623621  -28959.628293  -29881.097439     251.257641     294.842474     119.484550  -18572.046289  -11926.209184     -48.426632  -29376.966575    -309.374278
    210000      294.202738   92497.103212       0.623621  -28971.175276  -29882.339290     249.958909     289.236719     109.393558  -18578.039624  -11928.931425     -23.957427  -28529.701639     327.265899
Loop time of 171.665 on 128 procs for 100000 steps with 1040 atoms

Performance: 50.331 ns/day, 0.477 hours/ns, 582.530 timesteps/s
99.5% CPU use with 128 MPI tasks x 1 OpenMP threads

MPI task timing breakdown:
Section |  min time  |  avg time  |  max time  |%varavg| %total
---------------------------------------------------------------
Pair    | 0.020674   | 21.262     | 129.27     | 869.7 | 12.39
Bond    | 0.008996   | 0.54615    | 2.8844     | 128.1 |  0.32
Kspace  | 21.395     | 134.47     | 158.02     | 367.9 | 78.33
Neigh   | 3.4389     | 3.6954     | 3.86       |   7.9 |  2.15
Comm    | 0.04501    | 1.905      | 6.0689     | 154.6 |  1.11
Output  | 0.083363   | 0.083626   | 0.11016    |   0.8 |  0.05
Modify  | 9.0552     | 9.1379     | 9.2272     |   1.4 |  5.32
Other   |            | 0.5701     |            |       |  0.33

Nlocal:          8.125 ave          46 max           0 min
Histogram: 96 0 0 1 4 4 7 4 5 7
Nghost:        911.562 ave        3147 max           0 min
Histogram: 64 16 0 0 16 0 0 16 0 16
Neighs:              0 ave           0 max           0 min
Histogram: 128 0 0 0 0 0 0 0 0 0

Total # of neighbors = 0
Ave neighs/atom = 0
Ave special neighs/atom = 6.8923077
Neighbor list builds = 2453
Dangerous builds = 0
System init for write_restart ...
PPPM initialization ...
  using 12-bit tables for long-range coulomb (src/src/kspace.cpp:342)
  G vector (1/distance) = 0.16062035
  grid = 8 30 8
  stencil order = 5
  estimated absolute RMS force accuracy = 0.029612112
  estimated relative force accuracy = 8.9175995e-05
  using double precision FFTW3
  3d grid and FFT values/proc = 504 16
Generated 0 of 78 mixed pair_coeff terms from arithmetic mixing rule
System init for write_data ...
PPPM initialization ...
  using 12-bit tables for long-range coulomb (src/src/kspace.cpp:342)
  G vector (1/distance) = 0.16062035
  grid = 8 30 8
  stencil order = 5
  estimated absolute RMS force accuracy = 0.029612112
  estimated relative force accuracy = 8.9175995e-05
  using double precision FFTW3
  3d grid and FFT values/proc = 504 16
Generated 0 of 78 mixed pair_coeff terms from arithmetic mixing rule
Total wall time: 0:06:04
