
                                 *****************
                                 * O   R   C   A *
                                 *****************

                                            #,                                       
                                            ###                                      
                                            ####                                     
                                            #####                                    
                                            ######                                   
                                           ########,                                 
                                     ,,################,,,,,                         
                               ,,#################################,,                 
                          ,,##########################################,,             
                       ,#########################################, ''#####,          
                    ,#############################################,,   '####,        
                  ,##################################################,,,,####,       
                ,###########''''           ''''###############################       
              ,#####''   ,,,,##########,,,,          '''####'''          '####       
            ,##' ,,,,###########################,,,                        '##       
           ' ,,###''''                  '''############,,,                           
         ,,##''                                '''############,,,,        ,,,,,,###''
      ,#''                                            '''#######################'''  
     '                                                          ''''####''''         
             ,#######,   #######,   ,#######,      ##                                
            ,#'     '#,  ##    ##  ,#'     '#,    #''#        ,####,   ,####,        
            ##       ##  ##   ,#'  ##            #'  '#       #'       #'  '#        
            ##       ##  #######   ##           ,######,      #####,   #    #        
            '#,     ,#'  ##    ##  '#,     ,#' ,#      #,     #,   #   #,  ,#        
             '#######'   ##     ##  '#######'  #'      '#     '####' # '####'        



                #########################################################
                #                        -***-                          #
                #          Department of theory and spectroscopy        #
                #                                                       #
                #                      Frank Neese                      #
                #                                                       #
                #     Directorship, Architecture, Infrastructure        #
                #                    SHARK, DRIVERS                     #
                #        Core code/Algorithms in most modules           #
                #                                                       #
                #        Max Planck Institute fuer Kohlenforschung      #
                #                Kaiser Wilhelm Platz 1                 #
                #                 D-45470 Muelheim/Ruhr                 #
                #                      Germany                          #
                #                                                       #
                #                  All rights reserved                  #
                #                        -***-                          #
                #########################################################


                         Program Version 6.0.1  -  RELEASE   -


 With contributions from (in alphabetic order):
[Max-Planck-Institut fuer Kohlenforschung]                               
  Daniel Aravena         : Magnetic Suceptibility                        
  Michael Atanasov       : Ab Initio Ligand Field Theory (pilot matlab implementation)
  Alexander A. Auer      : GIAO ZORA, VPT2 properties, NMR spectrum      
  Ute Becker             : All parallelization in ORCA, NUMFREQ, NUMCALC 
  Giovanni Bistoni       : ED, misc. LED, open-shell LED, HFLD           
  Martin Brehm           : Molecular dynamics                            
  Dmytro Bykov           : pre 5.0 version of the SCF Hessian            
  Marcos Casanova-Páez   : Triplet and SCS-CIS(D). UHF-(DLPNO)-IP/EA/STEOM-CCSD. UHF-CVS-IP/STEOM-CCSD   
  Vijay G. Chilkuri      : MRCI spin determinant printing, contributions to CSF-ICE 
  Pauline Colinet        : FMM embedding                                 
  Dipayan Datta          : RHF DLPNO-CCSD density                        
  Achintya Kumar Dutta   : EOM-CC, STEOM-CC                              
  Nicolas Foglia         : Exact transition moments, OPA infrastructure, MCD improvements    
  Dmitry Ganyushin       : Spin-Orbit,Spin-Spin,Magnetic field MRCI      
  Miquel Garcia-Rates    : C-PCM and meta-GGA Hessian, CCSD/C-PCM, Gaussian charge scheme 
  Tiago L. C. Gouveia    : GS-ROHF, GS-ROCIS                             
  Yang Guo               : DLPNO-NEVPT2, F12-NEVPT2, CIM, IAO-localization        
  Andreas Hansen         : Spin unrestricted coupled pair/coupled cluster methods 
  Ingolf Harden          : AUTO-CI MPn and infrastructure                
  Benjamin Helmich-Paris : MC-RPA, TRAH-(SCF,CASSCF), AVAS, COSX integrals, SCF dyn. polar. 
  Lee Huntington         : MR-EOM, pCC                                   
  Robert Izsak           : Overlap fitted RIJCOSX, COSX-SCS-MP3, EOM     
  Riya Kayal             : Wick's Theorem for AUTO-CI, AUTO-CI UHF-CCSDT 
  Emily Kempfer          : AUTO-CI, RHF CISDT and CCSDT                  
  Christian Kollmar      : KDIIS, OOCD, Brueckner-CCSD(T), CCSD density, CASPT2, CASPT2-K, improved NEVPT2 
  Axel Koslowski         : Symmetry handling                             
  Simone Kossmann        : meta-GGA functionals, TD-DFT gradient, OOMP2, (MP2 Hessian; deprecated post 5.0) 
  Lucas Lang             : DCDCAS                                        
  Marvin Lechner         : AUTO-CI (C++ implementation), FIC-MRCC        
  Spencer Leger          : CASSCF response                               
  Dagmar Lenk            : GEPOL surface, SMD, ORCA-2-JSON               
  Dimitrios Liakos       : Extrapolation schemes; Compound Job, initial MDCI parallelization 
  Dimitrios Manganas     : Further ROCIS development; embedding schemes. LFT, Crystal Embedding 
  Dimitrios Pantazis     : SARC Basis sets                               
  Anastasios Papadopoulos: AUTO-CI, single reference methods and gradients 
  Taras Petrenko         : pre 6.0 DFT Hessian and TD-DFT gradient, (ASA, deprecated), ECA, 1-Electron XAS/XES, NRVS 
  Peter Pinski           : DLPNO-MP2, DLPNO-MP2 Gradient                 
  Christoph Reimann      : Effective Core Potentials                     
  Marius Retegan         : Local ZFS, SOC                                
  Christoph Riplinger    : Optimizer, TS searches, QM/MM, DLPNO-CCSD(T), (RO)-DLPNO pert. Triples 
  Michael Roemelt        : Original ROCIS implementation                 
  Masaaki Saitow         : Open-shell DLPNO-CCSD energy and density      
  Barbara Sandhoefer     : DKH picture change effects                    
  Kantharuban Sivalingam : CASSCF convergence/infrastructure, NEVPT2 and variants, FIC-MRCI 
  Bernardo de Souza      : ESD, SOC TD-DFT                               
  Georgi L. Stoychev     : AutoAux, RI-MP2 NMR, DLPNO-MP2 response, X2C  
  Van Anh Tran           : RI-MP2 g-tensors                              
  Willem Van den Heuvel  : Paramagnetic NMR                              
  Zikuan Wang            : NOTCH, Electric field optimization            
  Frank Wennmohs         : Technical directorship and infrastructure     
  Hang Xu                : AUTO-CI-Response properties                   
                                                                         
[FACCTs GmbH]                                                            
  Markus Bursch, Miquel Garcia-Rates, Christoph Riplinger, Bernardo de Souza, Georgi L. Stoychev 
                                                                 
  APM, Basis sets (HGBS, AHGBS, def-TZVP (Ac-Lr), def2-XVPD (La-Lu)), CI-OPT, improved COSX, DLPNO-Multilevel,           
  DOCKER, DRACO, updates on ESD, GOAT, IRC, LR-CPCM, MBIS, meta-GGA TD-DFT gradient, ML-optimized integration grids, 
  MM, NACMEs, nearIR, NEB, NEB-TS, NL-DFT gradient (VV10), 2- and 3-layer-ONIOM, interface openCOSMO-RS, QMMM,   
  Crystal-QMMM, SF, symmetry and pop. for TD-DFT, r2SCAN hybrids, SOLVATOR                                   
                                                                         
[Other institutions]                                                     
  V. Asgeirsson          : NEB                                           
  Christoph Bannwarth    : sTDA-DFT, sTD-DFT, PBEh-3c, B97-3c, D3        
  Sebastian Ehlert       : rSCAN, r2SCAN, r2SCAN-3c, D4, dhf basis sets  
  Marvin Friede          : D4 for Fr, Ra, Ac-Lr                          
  Lars Goerigk           : TD-DFT with DH, B97 family of functionals     
  Stefan Grimme          : VdW corrections, initial TS optimization, DFT functionals, gCP, sTDA/sTD-DF 
  Waldemar Hujo          : DFT-NL                                        
  H. Jonsson             : NEB                                           
  Holger Kruse           : gCP                                           
  Marcel Mueller         : wB97X-3c, vDZP basis set                      
  Hagen Neugebauer       : wr2SCAN                                       
  Tobias Risthaus        : range-separated hybrid DFT                    
  Lukas Wittmann         : regularized MP2, r2SCAN double-hybrids, wr2SCAN        
                                                                         
We gratefully acknowledge several colleagues who have allowed us to      
interface, adapt or use parts of their codes:                            
  Ed Valeev, F. Pavosevic, A. Kumar             : LibInt (2-el integral package), F12 methods 
  Garnet Chan, S. Sharma, J. Yang, R. Olivares  : DMRG                   
  Ulf Ekstrom                                   : XCFun DFT Library      
  Mihaly Kallay                                 : mrcc  (arbitrary order and MRCC methods)
  Frank Weinhold                                : gennbo (NPA and NBO analysis)           
  Simon Mueller                                 : openCOSMO-RS                            
  Christopher J. Cramer and Donald G. Truhlar   : smd solvation model                     
  S Lehtola, MJT Oliveira, MAL Marques          : LibXC Library                           
  Liviu Ungur et al                             : ANISO software                          


 Your calculation uses the libint2 library for the computation of 2-el integrals
 For citations please refer to: http://libint.valeyev.net

 Your ORCA version has been built with support for libXC version: 6.2.2
 For citations please refer to: https://libxc.gitlab.io

 This ORCA versions uses:
   CBLAS   interface :  Fast vector & matrix operations
   LAPACKE interface :  Fast linear algebra routines
   SCALAPACK package :  Parallel linear algebra routines
   Shared memory     :  Shared parallel matrices
   BLAS/LAPACK       :  OpenBLAS 0.3.27  USE64BITINT DYNAMIC_ARCH NO_AFFINITY Zen SINGLE_THREADED
        Core in use  :  Zen
   Copyright (c) 2011-2014, The OpenBLAS Project




***************************************
The coordinates will be read from file: /temp180/bsavoie2/emille35/mlip_alchemy/sn1_scans/ch3cl/uwb97mv-tzvpd/orca.allxyz
***************************************


****
**** There are 64 structures found in the file
****
Your calculation utilizes the DFT-NL dispersion correction.
Cite in your paper:
Vydrov, O. A.; Van Voorhis, T. J. Chem. Phys. 2010, 133, 244103
Hujo, W.; Grimme, S. J. Chem. Theory Comput. 2011, 7, 3866 
   

Warning: RI is on but no J-basis has been assigned. Assigning Def2/J (nothing to worry about!)
================================================================================

----- Orbital basis set information -----
Your calculation utilizes the basis: def2-TZVPD
   F. Weigend and R. Ahlrichs, Phys. Chem. Chem. Phys. 7, 3297 (2005).
   D. Rappoport and F. Furche, J. Chem. Phys. 133, 134105 (2010)
   D. Rappoport, J. Chem. Phys. 155, 124102 (2021).

----- AuxJ basis set information -----
Your calculation utilizes the auxiliary basis: def2/J
   F. Weigend, Phys. Chem. Chem. Phys. 8, 1057 (2006).

================================================================================
                                        WARNINGS
                       Please study these warnings very carefully!
================================================================================


WARNING: B97M-V or wB97M-V functional requested.
  ===> : libXC variant has now been activated.
         Any manually given DFX/HFX/RangeSep scaling parameters are IGNORED!


================================================================================
                                       INPUT FILE
================================================================================
NAME = orca.inp
|  1> ! UKS wB97M-V def2-TZVPD PAL2
|  2> 
|  3> * xyzfile -1 2 /temp180/bsavoie2/emille35/mlip_alchemy/sn1_scans/ch3cl/uwb97mv-tzvpd/orca.allxyz
|  4> 
|  5>                          ****END OF INPUT****
================================================================================

                      *********************************
                      * Multiple XYZ Scan Calculation *
                      *********************************

Multiple XYZ scan settings:
    -> SCF surface will be mapped

There are 64 structures to be calculated

         *************************************************************
                               MULTIPLE XYZ STEP   1
         *************************************************************
---------------------------------
CARTESIAN COORDINATES (ANGSTROEM)
---------------------------------
  C     -0.011361    0.000097   -0.000042
  Cl     6.988639   -0.000284   -0.000127
  H     -0.005870    0.127880   -1.069946
  H     -0.016667    0.862758    0.645612
  H     -0.009881   -0.990371    0.424263

----------------------------
CARTESIAN COORDINATES (A.U.)
----------------------------
  NO LB      ZA    FRAG     MASS         X           Y           Z
   0 C     6.0000    0    12.011   -0.021469    0.000183   -0.000079
   1 Cl   17.0000    0    35.453   13.206614   -0.000537   -0.000240
   2 H     1.0000    0     1.008   -0.011093    0.241658   -2.021905
   3 H     1.0000    0     1.008   -0.031496    1.630376    1.220030
   4 H     1.0000    0     1.008   -0.018672   -1.871530    0.801741

--------------------------------
INTERNAL COORDINATES (ANGSTROEM)
--------------------------------
 C      0   0   0     0.000000000000     0.00000000     0.00000000
 Cl     1   0   0     7.000000010885     0.00000000     0.00000000
 H      1   2   0     1.077521793462    89.70770116     0.00000000
 H      1   2   3     1.077534798637    90.28505076   239.99799543
 H      1   2   3     1.077526696861    89.91871071   120.00055589

---------------------------
INTERNAL COORDINATES (A.U.)
---------------------------
 C      0   0   0     0.000000000000     0.00000000     0.00000000
 Cl     1   0   0    13.228082958018     0.00000000     0.00000000
 H      1   2   0     2.036221092975    89.70770116     0.00000000
 H      1   2   3     2.036245669193    90.28505076   239.99799543
 H      1   2   3     2.036230359057    89.91871071   120.00055589

---------------------
BASIS SET INFORMATION
---------------------
There are 3 groups of distinct atoms

 Group   1 Type C   : 12s6p3d1f contracted to 6s3p3d1f pattern {621111/411/111/1}
 Group   2 Type Cl  : 15s10p4d1f contracted to 6s6p3d1f pattern {732111/511111/211/1}
 Group   3 Type H   : 5s2p contracted to 3s2p pattern {311/11}

Atom   0C    basis set group =>   1
Atom   1Cl   basis set group =>   2
Atom   2H    basis set group =>   3
Atom   3H    basis set group =>   3
Atom   4H    basis set group =>   3
---------------------------------
AUXILIARY/J BASIS SET INFORMATION
---------------------------------
There are 3 groups of distinct atoms

 Group   1 Type C   : 12s5p4d2f1g contracted to 6s4p3d1f1g pattern {711111/2111/211/2/1}
 Group   2 Type Cl  : 14s5p5d2f1g contracted to 8s4p3d1f1g pattern {71111111/2111/311/2/1}
 Group   3 Type H   : 5s2p1d contracted to 3s1p1d pattern {311/2/1}

Atom   0C    basis set group =>   1
Atom   1Cl   basis set group =>   2
Atom   2H    basis set group =>   3
Atom   3H    basis set group =>   3
Atom   4H    basis set group =>   3


           ************************************************************
           *        Program running with 2 parallel MPI-processes     *
           *              working on a common directory               *
           ************************************************************
------------------------------------------------------------------------------
                             ORCA STARTUP CALCULATIONS
                           -- RI-GTO INTEGRALS CHOSEN --
------------------------------------------------------------------------------
------------------------------------------------------------------------------
                   ___                                                        
                  /   \      - P O W E R E D   B Y -                         
                 /     \                                                     
                 |  |  |   _    _      __       _____    __    __             
                 |  |  |  | |  | |    /  \     |  _  \  |  |  /  |          
                  \  \/   | |  | |   /    \    | | | |  |  | /  /          
                 / \  \   | |__| |  /  /\  \   | |_| |  |  |/  /          
                |  |  |   |  __  | /  /__\  \  |    /   |      \           
                |  |  |   | |  | | |   __   |  |    \   |  |\   \          
                \     /   | |  | | |  |  |  |  | |\  \  |  | \   \       
                 \___/    |_|  |_| |__|  |__|  |_| \__\ |__|  \__/        
                                                                              
                      - O R C A' S   B I G   F R I E N D -                    
                                      &                                       
                       - I N T E G R A L  F E E D E R -                       
                                                                              
 v1 FN, 2020, v2 2021, v3 2022-2024                                           
------------------------------------------------------------------------------


----------------------
SHARK INTEGRAL PACKAGE
----------------------

Number of atoms                             ...      5
Number of basis functions                   ...    110
Number of shells                            ...     44
Maximum angular momentum                    ...      3
Integral batch strategy                     ... SHARK/LIBINT Hybrid
RI-J (if used) integral strategy            ... SPLIT-RIJ (Revised 2003 algorithm where possible)
Printlevel                                  ...      1
Contraction scheme used                     ... SEGMENTED contraction
Prescreening option                         ... SCHWARTZ
   Thresh                                   ... 1.000e-10
   Tcut                                     ... 1.000e-11
   Tpresel                                  ... 1.000e-11 
Coulomb Range Separation                    ... NOT USED
Exchange Range Separation                   ... Long Range
   Mu parameter                             ... 3.000e-01
   Scaling (regular/separated)              ... 1.500e-01 8.500e-01
Multipole approximations                    ... NOT USED
Finite Nucleus Model                        ... NOT USED
CABS basis                                  ... NOT available
Auxiliary Coulomb fitting basis             ... AVAILABLE
   # of basis functions in Aux-J            ...    133
   # of shells in Aux-J                     ...     47
   Maximum angular momentum in Aux-J        ...      4
Auxiliary J/K fitting basis                 ... NOT available
Auxiliary Correlation fitting basis         ... NOT available
Auxiliary 'external' fitting basis          ... NOT available

Checking pre-screening integrals            ... done (  2.1 sec) Dimension = 44
Check shell pair data                       ... done (  0.1 sec)
Shell pair information
Shell pair cut-off parameter TPreSel        ...   1.0e-11
Total number of shell pairs                 ...       990
Shell pairs after pre-screening             ...       791
Total number of primitive shell pairs       ...      2768
Primitive shell pairs kept                  ...      1889
          la=0 lb=0:    186 shell pairs
          la=1 lb=0:    255 shell pairs
          la=1 lb=1:    101 shell pairs
          la=2 lb=0:     98 shell pairs
          la=2 lb=1:     74 shell pairs
          la=2 lb=2:     18 shell pairs
          la=3 lb=0:     28 shell pairs
          la=3 lb=1:     21 shell pairs
          la=3 lb=2:      8 shell pairs
          la=3 lb=3:      2 shell pairs

Calculating one electron integrals          ... done (  0.1 sec)
Calculating RI/J V-Matrix + Cholesky decomp.... done (  0.1 sec)
Calculating Nuclear repulsion               ... done (  0.0 sec) ENN=     21.212188722744 Eh

Diagonalization of the overlap matrix:
Smallest eigenvalue                        ... 6.598e-05
Time for diagonalization                   ...    0.002 sec
Threshold for overlap eigenvalues          ... 1.000e-07
Number of eigenvalues below threshold      ... 0
Time for construction of square roots      ...    0.014 sec
Total time needed                          ...    0.400 sec

-------------------
DFT GRID GENERATION
-------------------

General Integration Accuracy     IntAcc      ... 4.388
Radial Grid Type                 RadialGrid  ... OptM3 with GC (2021)
Angular Grid (max. ang.)         AngularGrid ... 4 (Lebedev-302)
Angular grid pruning method      GridPruning ... 4 (adaptive)
Weight generation scheme         WeightScheme... mBecke (2022)
Basis function cutoff            BFCut       ... 1.0000e-10
Integration weight cutoff        WCut        ... 1.0000e-14
Partially contracted basis set               ... off
Rotationally invariant grid construction     ... off
Angular grids for H and He will be reduced by one unit
Diffuse basis detected: some atoms will have their outermost
                        angular grid increased by 1.

Total number of grid points                  ...    24728
Total number of batches                      ...      388
Average number of points per batch           ...       63
Average number of grid points per atom       ...     4946

--------------------
COSX GRID GENERATION
--------------------

GRIDX 1
-------
General Integration Accuracy     IntAcc      ... 3.816
Radial Grid Type                 RadialGrid  ... OptM3 with GC (2021)
Angular Grid (max. ang.)         AngularGrid ... 1 (Lebedev-50)
Angular grid pruning method      GridPruning ... 4 (adaptive)
Weight generation scheme         WeightScheme... mBecke (2022)
Basis function cutoff            BFCut       ... 1.0000e-10
Integration weight cutoff        WCut        ... 1.0000e-14
Partially contracted basis set               ... on
Rotationally invariant grid construction     ... off
Angular grids for H and He will be reduced by one unit
Diffuse basis detected: some atoms will have their outermost
                        angular grid increased by 1.

Total number of grid points                  ...     4363
Total number of batches                      ...       37
Average number of points per batch           ...      117
Average number of grid points per atom       ...      873
UseSFitting                                  ... on

GRIDX 2
-------
General Integration Accuracy     IntAcc      ... 4.020
Radial Grid Type                 RadialGrid  ... OptM3 with GC (2021)
Angular Grid (max. ang.)         AngularGrid ... 2 (Lebedev-110)
Angular grid pruning method      GridPruning ... 4 (adaptive)
Weight generation scheme         WeightScheme... mBecke (2022)
Basis function cutoff            BFCut       ... 1.0000e-10
Integration weight cutoff        WCut        ... 1.0000e-14
Partially contracted basis set               ... on
Rotationally invariant grid construction     ... off
Angular grids for H and He will be reduced by one unit
Diffuse basis detected: some atoms will have their outermost
                        angular grid increased by 1.

Total number of grid points                  ...     7258
Total number of batches                      ...       60
Average number of points per batch           ...      120
Average number of grid points per atom       ...     1452
UseSFitting                                  ... on

GRIDX 3
-------
General Integration Accuracy     IntAcc      ... 4.338
Radial Grid Type                 RadialGrid  ... OptM3 with GC (2021)
Angular Grid (max. ang.)         AngularGrid ... 3 (Lebedev-194)
Angular grid pruning method      GridPruning ... 4 (adaptive)
Weight generation scheme         WeightScheme... mBecke (2022)
Basis function cutoff            BFCut       ... 1.0000e-10
Integration weight cutoff        WCut        ... 1.0000e-14
Partially contracted basis set               ... on
Rotationally invariant grid construction     ... off
Angular grids for H and He will be reduced by one unit
Diffuse basis detected: some atoms will have their outermost
                        angular grid increased by 1.

Total number of grid points                  ...    17322
Total number of batches                      ...      140
Average number of points per batch           ...      123
Average number of grid points per atom       ...     3464
UseSFitting                                  ... on
Initializing property integral containers    ... done (  6.0 sec)

SHARK setup successfully completed in  12.6 seconds

Maximum memory used throughout the entire STARTUP-calculation: 15.2 MB


           ************************************************************
           *        Program running with 2 parallel MPI-processes     *
           *              working on a common directory               *
           ************************************************************
-------------------------------------------------------------------------------
                                 ORCA GUESS
                   Start orbitals & Density for SCF / CASSCF
-------------------------------------------------------------------------------

------------
SCF SETTINGS
------------
Hamiltonian:
 Density Functional     Method          .... DFT(GTOs)
  Functional kind                       .... Exchange-Correlation
  Functional name                       .... wB97M-V exchange-correlation functional
  Functional family                     .... Hybrid MGGA
  Functional refs                              
    [ 0] N. Mardirossian and M. Head-Gordon.,  J. Chem. Phys. 144, 214110 (2016), doi: 10.1063/1.4952647
  Fraction of HF Exchange (short range) .... 0.1500
  Fraction of HF Exchange (long range)  .... 1.0000
  Range separation parameter mu         .... 0.3000
  Functional external parameters        .... 17
    Parameter  0 _cx00      =  8.500000e-01 : u^00 coefficient for exchange
    Parameter  1 _cx01      =  1.007000e+00 : u^01 coefficient for exchange
    Parameter  2 _cx10      =  2.590000e-01 : u^10 coefficient for exchange
    Parameter  3 _css00     =  4.430000e-01 : u^00 coefficient for same-spin correlation
    Parameter  4 _css04     = -1.437000e+00 : u^04 coefficient for same-spin correlation
    Parameter  5 _css10     = -4.535000e+00 : u^10 coefficient for same-spin correlation
    Parameter  6 _css20     = -3.390000e+00 : u^20 coefficient for same-spin correlation
    Parameter  7 _css43     =  4.278000e+00 : u^43 coefficient for same-spin correlation
    Parameter  8 _cos00     =  1.000000e+00 : u^00 coefficient for opposite-spin correlation
    Parameter  9 _cos10     =  1.358000e+00 : u^10 coefficient for opposite-spin correlation
    Parameter 10 _cos20     =  2.924000e+00 : u^20 coefficient for opposite-spin correlation
    Parameter 11 _cos21     = -8.812000e+00 : u^21 coefficient for opposite-spin correlation
    Parameter 12 _cos60     = -1.390000e+00 : u^60 coefficient for opposite-spin correlation
    Parameter 13 _cos61     =  9.142000e+00 : u^61 coefficient for opposite-spin correlation
    Parameter 14 _alpha     =  1.000000e+00 : fraction of HF exchange
    Parameter 15 _beta      = -8.500000e-01 : fraction of short-range exchange
    Parameter 16 _omega     =  3.000000e-01 : range-separation constant
 Long-range corrected/Screened/Range-Separated Hybrid DFT is turned on
   Amount of maximum screened exact exchange              ....  0.850000
   Range separation parameter mu (erf(mu*r12)/r12)        ....  0.300000
   NL short-range parameter             ....  6.000000
   NL long-range parameter              ....  0.010000
 RI-approximation to the Coulomb term is turned on
   Number of AuxJ basis functions       .... 133
   RIJ-COSX (HFX calculated with COS-X)).... on


General Settings:
 Integral files         IntName         .... orca
 Hartree-Fock type      HFTyp           .... UHF
 Total Charge           Charge          ....   -1
 Multiplicity           Mult            ....    2
 Number of Electrons    NEL             ....   27
 Basis Dimension        Dim             ....  110
 Nuclear Repulsion      ENuc            ....     21.2121887227 Eh

Convergence Acceleration:
 AO-DIIS                CNVDIIS         .... on
   Start iteration      DIISMaxIt       ....    12
   Startup error        DIISStart       ....  0.200000
   # of expansion vecs  DIISMaxEq       ....     5
   Bias factor          DIISBfac        ....   1.050
   Max. coefficient     DIISMaxC        ....  10.000
 MO-DIIS                CNVKDIIS        .... off
 Trust-Rad. Augm. Hess. CNVTRAH         .... auto
   Auto Start mean grad. ratio tolernc. ....  1.125000
   Auto Start start iteration           ....    50
   Auto Start num. interpolation iter.  ....    10
   Max. Number of Micro iterations      ....    24
   Max. Number of Macro iterations      .... Maxiter - #DIIS iter
   Number of Davidson start vectors     ....     2
   Converg. threshold    (grad. norm)   ....   5.000e-05
   Grad. Scal. Fac. for Micro threshold ....   0.100
   Minimum threshold for Micro iter.    ....   1.000e-02
   NR start threshold (gradient norm)   ....   1.000e-04
   Initial trust radius                 ....   0.400
   Minimum AH scaling param. (alpha)    ....   1.000
   Maximum AH scaling param. (alpha)    .... 1000.000
   Quad. conv. algorithm                .... NR
   White noise on init. David. guess    .... on
   Maximum white noise                  ....   0.010
   Pseudo random numbers                .... off
   Inactive MOs                         .... canonical
   Orbital update algorithm             .... Taylor
   Preconditioner                       .... Diag
   Full preconditioner red. dimension   ....   250
 SOSCF                  CNVSOSCF        .... on
   Start iteration      SOSCFMaxIt      ....   150
   Startup grad/error   SOSCFStart      ....  0.003300
   Hessian update       SOSCFHessUp     .... L-BFGS
 Level Shifting         CNVShift        .... on
   Level shift para.    LevelShift      ....    0.2500
   Turn off err/grad.   ShiftErr        ....    0.0010
 Zerner damping         CNVZerner       .... off
 Static damping         CNVDamp         .... on
   Fraction old density DampFac         ....    0.7000
   Max. Damping (<1)    DampMax         ....    0.9800
   Min. Damping (>=0)   DampMin         ....    0.0000
   Turn off err/grad.   DampErr         ....    0.1000

SCF Procedure:
 Maximum # iterations   MaxIter         ....   125
 SCF integral mode      SCFMode         .... Direct
   Integral package                     .... SHARK and LIBINT hybrid scheme
 Reset frequency        DirectResetFreq ....    20
 Integral Threshold     Thresh          ....  1.000e-10 Eh
 Primitive CutOff       TCut            ....  1.000e-11 Eh

Convergence Tolerance:
 Convergence Check Mode ConvCheckMode   .... Total+1el-Energy
 Convergence forced     ConvForced      .... 0
 Energy Change          TolE            ....  1.000e-06 Eh
 1-El. energy change                    ....  1.000e-03 Eh
 Orbital Gradient       TolG            ....  5.000e-05
 Orbital Rotation angle TolX            ....  5.000e-05
 DIIS Error             TolErr          ....  1.000e-06

------------------------------
INITIAL GUESS: MODEL POTENTIAL
------------------------------
Loading Hartree-Fock densities                     ... done
Calculating cut-offs                               ... done
Initializing the effective Hamiltonian             ... done
Setting up the integral package (SHARK)            ... done
Starting the Coulomb interaction                   ... done (   1.1 sec)
Making the grid                                    ... done (   5.3 sec)
Mapping shells                                     ... done
Starting the XC term evaluation                    ... done (   0.0 sec)
  promolecular density results
     # of electrons  =     25.998587792
     EX              =    -33.266268071
     EC              =     -0.908344735
     EX+EC           =    -34.174612806
Transforming the Hamiltonian                       ... done (   0.8 sec)
Diagonalizing the Hamiltonian                      ... done (   0.0 sec)
Back transforming the eigenvectors                 ... done (   2.3 sec)
Now organizing SCF variables                       ... done
                      ------------------
                      INITIAL GUESS DONE (  20.1 sec)
                      ------------------
             **** ENERGY FILE WAS UPDATED (orca.en.tmp) ****
Finished Guess after  30.7 sec
Maximum memory used throughout the entire GUESS-calculation: 8.3 MB


           ************************************************************
           *        Program running with 2 parallel MPI-processes     *
           *              working on a common directory               *
           ************************************************************

-------------------------------------------------------------------------------------------
                                      ORCA LEAN-SCF
                              memory conserving SCF solver
-------------------------------------------------------------------------------------------

----------------------------------------D-I-I-S--------------------------------------------
Iteration    Energy (Eh)           Delta-E    RMSDP     MaxDP     DIISErr   Damp  Time(sec)
-------------------------------------------------------------------------------------------
               ***  Starting incremental Fock matrix formation  ***
    1    -500.0780109205979898     0.00e+00  1.18e-03  4.17e-02  8.74e-02  0.700  38.5
    2    -500.1202398799950970    -4.22e-02  9.32e-04  2.64e-02  5.53e-02  0.700  50.0
                               ***Turning on AO-DIIS***
    3    -500.1446609770039231    -2.44e-02  5.62e-04  1.25e-02  3.01e-02  0.700  45.9
    4    -500.1593005972894161    -1.46e-02  1.28e-03  2.97e-02  2.03e-02  0.000  37.2
                              *** Initializing SOSCF ***
---------------------------------------S-O-S-C-F--------------------------------------
Iteration    Energy (Eh)           Delta-E    RMSDP     MaxDP     MaxGrad    Time(sec)
--------------------------------------------------------------------------------------
    5    -500.1908821509667860    -3.16e-02  1.47e-04  4.38e-03  1.82e-03    40.0
               *** Restarting incremental Fock matrix formation ***
    6    -500.1909617929277374    -7.96e-05  9.53e-05  1.62e-03  7.59e-04    36.9
    7    -500.1909909100495497    -2.91e-05  6.36e-05  1.71e-03  3.77e-04    41.1
    8    -500.1909953928858386    -4.48e-06  1.63e-05  6.43e-04  3.17e-04    50.4
    9    -500.1909959667539169    -5.74e-07  5.62e-06  1.57e-04  8.31e-05    33.3
                 **** Energy Check signals convergence ****

               *****************************************************
               *                     SUCCESS                       *
               *           SCF CONVERGED AFTER   9 CYCLES          *
               *****************************************************


------------------
NL GRID GENERATION
------------------

General Integration Accuracy     IntAcc      ... 4.004
Radial Grid Type                 RadialGrid  ... OptM3 with GC (2021)
Angular Grid (max. ang.)         AngularGrid ... 2 (Lebedev-110)
Angular grid pruning method      GridPruning ... 4 (adaptive)
Weight generation scheme         WeightScheme... mBecke (2022)
Basis function cutoff            BFCut       ... 1.0000e-10
Integration weight cutoff        WCut        ... 1.0000e-14
Partially contracted basis set               ... off
Rotationally invariant grid construction     ... off
Angular grids for H and He will be reduced by one unit
Diffuse basis detected: some atoms will have their outermost
                        angular grid increased by 1.

Total number of grid points                  ...     8465
Total number of batches                      ...      134
Average number of points per batch           ...       63
Average number of grid points per atom       ...     1693
Final grid set up in    0.1 sec

-------------------------------------------------------------------------------
                    post-SCF DFT-NL dispersion correction                      
-------------------------------------------------------------------------------

SCF Energy:     -500.190995967 
NL    Energy:      0.113420842 
SC+NL Energy:   -500.077575125 
NL done in  :              1.6 sec
-------------------------------------------------------------------------------
Recomputing exchange energy using gridx3       ... done (    4.243 sec)
Old exchange energy                            :     -8.700181453 Eh
New exchange energy                            :     -8.700183028 Eh
Exchange energy change after final integration :     -0.000001575 Eh
Total energy after final integration           :   -500.077576700 Eh
             **** ENERGY FILE WAS UPDATED (orca.en.tmp) ****

----------------
TOTAL SCF ENERGY
----------------

Total Energy       :       -500.07757669983562 Eh          -13607.80267 eV

Components:
Nuclear Repulsion  :         21.21218872274415 Eh             577.21300 eV
Electronic Energy  :       -521.40318468949806 Eh          -14188.10196 eV
One Electron Energy:       -736.43021261831052 Eh          -20039.28486 eV
Two Electron Energy:        215.02702792881246 Eh            5851.18290 eV

Virial components:
Potential Energy   :       -999.27944194624229 Eh          -27191.77602 eV
Kinetic Energy     :        499.20186524640661 Eh           13583.97335 eV
Virial Ratio       :          2.00175422311973

DFT components:
N(Alpha)           :       13.999972718184 electrons
N(Beta)            :       12.999883221824 electrons
N(Total)           :       26.999855940009 electrons
NL Energy, E(C,NL) :        0.113420841768 Eh       
E(XC)              :      -26.178237198576 Eh       

---------------
SCF CONVERGENCE
---------------

  Last Energy change         ...    5.7387e-07  Tolerance :   1.0000e-06
  Last MAX-Density change    ...    1.5739e-04  Tolerance :   1.0000e-05
  Last RMS-Density change    ...    5.6238e-06  Tolerance :   1.0000e-06
  Last DIIS Error            ...    1.8162e-03  Tolerance :   1.0000e-06
  Last Orbital Gradient      ...    8.3078e-05  Tolerance :   5.0000e-05
  Last Orbital Rotation      ...    1.1016e-04  Tolerance :   5.0000e-05


----------------------
UHF SPIN CONTAMINATION
----------------------

Warning: in a DFT calculation there is little theoretical justification to 
         calculate <S**2> as in Hartree-Fock theory. We will do it anyways
         but you should keep in mind that the values have only limited relevance

Expectation value of <S**2>     :     0.753190
Ideal value S*(S+1) for S=0.5   :     0.750000
Deviation                       :     0.003190

----------------
ORBITAL ENERGIES
----------------
                 SPIN UP ORBITALS
  NO   OCC          E(Eh)            E(eV) 
   0   1.0000    -101.552844     -2763.3934 
   1   1.0000     -10.280547      -279.7479 
   2   1.0000      -9.324090      -253.7214 
   3   1.0000      -7.023360      -191.1153 
   4   1.0000      -7.023352      -191.1151 
   5   1.0000      -7.023352      -191.1151 
   6   1.0000      -0.731988       -19.9184 
   7   1.0000      -0.601798       -16.3757 
   8   1.0000      -0.455412       -12.3924 
   9   1.0000      -0.455398       -12.3920 
  10   1.0000      -0.254542        -6.9264 
  11   1.0000      -0.124871        -3.3979 
  12   1.0000      -0.124871        -3.3979 
  13   1.0000      -0.124852        -3.3974 
  14   0.0000       0.121083         3.2948 
  15   0.0000       0.199528         5.4294 
  16   0.0000       0.199633         5.4323 
  17   0.0000       0.226211         6.1555 
  18   0.0000       0.235121         6.3980 
  19   0.0000       0.235142         6.3985 
  20   0.0000       0.247109         6.7242 
  21   0.0000       0.247219         6.7272 
  22   0.0000       0.254260         6.9188 
  23   0.0000       0.300507         8.1772 
  24   0.0000       0.311283         8.4704 

                 SPIN DOWN ORBITALS
  NO   OCC          E(Eh)            E(eV) 
   0   1.0000    -101.552844     -2763.3934 
   1   1.0000     -10.267376      -279.3895 
   2   1.0000      -9.324090      -253.7214 
   3   1.0000      -7.023357      -191.1153 
   4   1.0000      -7.023352      -191.1151 
   5   1.0000      -7.023352      -191.1151 
   6   1.0000      -0.693122       -18.8608 
   7   1.0000      -0.601793       -16.3756 
   8   1.0000      -0.441633       -12.0175 
   9   1.0000      -0.441621       -12.0171 
  10   1.0000      -0.124870        -3.3979 
  11   1.0000      -0.124870        -3.3979 
  12   1.0000      -0.124838        -3.3970 
  13   0.0000       0.080967         2.2032 
  14   0.0000       0.120537         3.2800 
  15   0.0000       0.201165         5.4740 
  16   0.0000       0.201270         5.4768 
  17   0.0000       0.227635         6.1943 
  18   0.0000       0.235092         6.3972 
  19   0.0000       0.235115         6.3978 
  20   0.0000       0.246269         6.7013 
  21   0.0000       0.246379         6.7043 
  22   0.0000       0.258114         7.0236 
  23   0.0000       0.307459         8.3664 
*Only the first 10 virtual orbitals were printed.

                    ********************************
                    * MULLIKEN POPULATION ANALYSIS *
                    ********************************

--------------------------------------------
MULLIKEN ATOMIC CHARGES AND SPIN POPULATIONS
--------------------------------------------
   0 C :   -0.740000    0.900409
   1 Cl:   -1.000250    0.000186
   2 H :    0.246770    0.033156
   3 H :    0.246599    0.033163
   4 H :    0.246882    0.033086
Sum of atomic charges         :   -1.0000000
Sum of atomic spin populations:    1.0000000

-----------------------------------------------------
MULLIKEN REDUCED ORBITAL CHARGES AND SPIN POPULATIONS
-----------------------------------------------------
CHARGE
  0 C s       :     3.557040  s :     3.557040
      pz      :     1.119574  p :     3.154743
      px      :     0.915578
      py      :     1.119591
      dz2     :     0.009039  d :     0.026161
      dxz     :     0.000015
      dyz     :     0.010020
      dx2y2   :     0.007062
      dxy     :     0.000025
      f0      :     0.000785  f :     0.002057
      f+1     :     0.000028
      f-1     :     0.000157
      f+2     :     0.000639
      f-2     :     0.000000
      f+3     :     0.000046
      f-3     :     0.000402

  1 Cls       :     6.000003  s :     6.000003
      pz      :     4.000001  p :    12.000243
      px      :     4.000242
      py      :     4.000001
      dz2     :     0.000001  d :     0.000003
      dxz     :     0.000000
      dyz     :     0.000000
      dx2y2   :     0.000002
      dxy     :     0.000000
      f0      :     0.000000  f :     0.000000
      f+1     :     0.000000
      f-1     :     0.000000
      f+2     :     0.000000
      f-2     :     0.000000
      f+3     :     0.000000
      f-3     :     0.000000

  2 H s       :     0.700177  s :     0.700177
      pz      :     0.013020  p :     0.053053
      px      :     0.027955
      py      :     0.012078

  3 H s       :     0.700371  s :     0.700371
      pz      :     0.012385  p :     0.053031
      px      :     0.027962
      py      :     0.012683

  4 H s       :     0.700151  s :     0.700151
      pz      :     0.012215  p :     0.052967
      px      :     0.027881
      py      :     0.012872


SPIN
  0 C s       :    -0.007360  s :    -0.007360
      pz      :     0.000863  p :     0.917143
      px      :     0.915486
      py      :     0.000793
      dz2     :    -0.002632  d :    -0.008347
      dxz     :    -0.000001
      dyz     :    -0.002169
      dx2y2   :    -0.003545
      dxy     :    -0.000001
      f0      :    -0.000262  f :    -0.001027
      f+1     :     0.000027
      f-1     :    -0.000047
      f+2     :    -0.000346
      f-2     :    -0.000000
      f+3     :     0.000046
      f-3     :    -0.000444

  1 Cls       :     0.000004  s :     0.000004
      pz      :     0.000000  p :     0.000180
      px      :     0.000180
      py      :     0.000000
      dz2     :     0.000001  d :     0.000003
      dxz     :    -0.000000
      dyz     :    -0.000000
      dx2y2   :     0.000002
      dxy     :    -0.000000
      f0      :    -0.000000  f :    -0.000000
      f+1     :    -0.000000
      f-1     :    -0.000000
      f+2     :    -0.000000
      f-2     :     0.000000
      f+3     :    -0.000000
      f-3     :    -0.000000

  2 H s       :     0.007630  s :     0.007630
      pz      :    -0.001531  p :     0.025526
      px      :     0.027929
      py      :    -0.000872

  3 H s       :     0.007633  s :     0.007633
      pz      :    -0.001105  p :     0.025531
      px      :     0.027926
      py      :    -0.001291

  4 H s       :     0.007617  s :     0.007617
      pz      :    -0.000956  p :     0.025469
      px      :     0.027851
      py      :    -0.001426



                     *******************************
                     * LOEWDIN POPULATION ANALYSIS *
                     *******************************

-------------------------------------------
LOEWDIN ATOMIC CHARGES AND SPIN POPULATIONS
-------------------------------------------
   0 C :    0.078491    0.820459
   1 Cl:   -1.000032    0.000095
   2 H :   -0.026125    0.059807
   3 H :   -0.026199    0.059831
   4 H :   -0.026135    0.059807

----------------------------------------------------
LOEWDIN REDUCED ORBITAL CHARGES AND SPIN POPULATIONS
----------------------------------------------------
CHARGE
  0 C s       :     2.912750  s :     2.912750
      pz      :     1.054304  p :     2.893469
      px      :     0.784879
      py      :     1.054286
      dz2     :     0.038261  d :     0.106355
      dxz     :     0.000023
      dyz     :     0.046744
      dx2y2   :     0.021289
      dxy     :     0.000038
      f0      :     0.003035  f :     0.008935
      f+1     :     0.000015
      f-1     :     0.000592
      f+2     :     0.002843
      f-2     :     0.000000
      f+3     :     0.000025
      f-3     :     0.002424

  1 Cls       :     6.000001  s :     6.000001
      pz      :     3.999999  p :    12.000030
      px      :     4.000033
      py      :     3.999999
      dz2     :     0.000000  d :     0.000001
      dxz     :     0.000000
      dyz     :     0.000000
      dx2y2   :     0.000001
      dxy     :     0.000000
      f0      :     0.000000  f :     0.000000
      f+1     :     0.000000
      f-1     :     0.000000
      f+2     :     0.000000
      f-2     :     0.000000
      f+3     :     0.000000
      f-3     :     0.000000

  2 H s       :     0.761041  s :     0.761041
      pz      :     0.126013  p :     0.265083
      px      :     0.071540
      py      :     0.067530

  3 H s       :     0.761091  s :     0.761091
      pz      :     0.088292  p :     0.265108
      px      :     0.071559
      py      :     0.105256

  4 H s       :     0.761057  s :     0.761057
      pz      :     0.076013  p :     0.265078
      px      :     0.071534
      py      :     0.117531


SPIN
  0 C s       :     0.017241  s :     0.017241
      pz      :     0.015236  p :     0.815247
      px      :     0.784788
      py      :     0.015223
      dz2     :    -0.003423  d :    -0.010523
      dxz     :    -0.000001
      dyz     :    -0.003168
      dx2y2   :    -0.003930
      dxy     :    -0.000002
      f0      :    -0.000473  f :    -0.001505
      f+1     :     0.000015
      f-1     :    -0.000090
      f+2     :    -0.000491
      f-2     :    -0.000000
      f+3     :     0.000025
      f-3     :    -0.000489

  1 Cls       :     0.000001  s :     0.000001
      pz      :    -0.000000  p :     0.000093
      px      :     0.000093
      py      :     0.000000
      dz2     :     0.000000  d :     0.000001
      dxz     :     0.000000
      dyz     :    -0.000000
      dx2y2   :     0.000001
      dxy     :     0.000000
      f0      :    -0.000000  f :    -0.000000
      f+1     :    -0.000000
      f-1     :    -0.000000
      f+2     :    -0.000000
      f-2     :     0.000000
      f+3     :    -0.000000
      f-3     :    -0.000000

  2 H s       :    -0.014149  s :    -0.014149
      pz      :     0.002791  p :     0.073956
      px      :     0.071500
      py      :    -0.000334

  3 H s       :    -0.014147  s :    -0.014147
      pz      :     0.000771  p :     0.073978
      px      :     0.071531
      py      :     0.001675

  4 H s       :    -0.014147  s :    -0.014147
      pz      :     0.000119  p :     0.073954
      px      :     0.071499
      py      :     0.002335



                      *****************************
                      * MAYER POPULATION ANALYSIS *
                      *****************************

  NA   - Mulliken gross atomic population
  ZA   - Total nuclear charge
  QA   - Mulliken gross atomic charge
  VA   - Mayer's total valence
  BVA  - Mayer's bonded valence
  FA   - Mayer's free valence

  ATOM       NA         ZA         QA         VA         BVA        FA
  0 C      6.7400     6.0000    -0.7400     3.6412     2.7976     0.8436
  1 Cl    18.0002    17.0000    -1.0002     0.0002     0.0002     0.0000
  2 H      0.7532     1.0000     0.2468     0.9665     0.9661     0.0004
  3 H      0.7534     1.0000     0.2466     0.9664     0.9661     0.0004
  4 H      0.7531     1.0000     0.2469     0.9662     0.9658     0.0004

  Mayer bond orders larger than 0.100000
B(  0-C ,  2-H ) :   0.9325 B(  0-C ,  3-H ) :   0.9324 B(  0-C ,  4-H ) :   0.9321 


-------
TIMINGS
-------

Total SCF time: 0 days 0 hours 6 min 49 sec 

Total time                  ....     409.548 sec
Sum of individual times     ....     383.770 sec  ( 93.7%)

SCF preparation             ....       3.779 sec  (  0.9%)
Fock matrix formation       ....     205.011 sec  ( 50.1%)
  Startup                   ....      53.222 sec  ( 26.0% of F)
  Split-RI-J                ....      46.320 sec  ( 22.6% of F)
  Chain of spheres X        ....      52.330 sec  ( 25.5% of F)
  XC integration            ....       2.794 sec  (  1.4% of F)
    XC Preparation          ....       0.000 sec  (  0.0% of XC)
    Basis function eval.    ....       0.174 sec  (  6.2% of XC)
    Density eval.           ....       0.578 sec  ( 20.7% of XC)
    XC-Functional eval.     ....       0.286 sec  ( 10.2% of XC)
    XC-Potential eval.      ....       0.514 sec  ( 18.4% of XC)
Diagonalization             ....       0.000 sec  (  0.0%)
Density matrix formation    ....      67.053 sec  ( 16.4%)
Total Energy calculation    ....      28.421 sec  (  6.9%)
Population analysis         ....       7.989 sec  (  2.0%)
Orbital Transformation      ....       8.809 sec  (  2.2%)
Orbital Orthonormalization  ....       0.000 sec  (  0.0%)
DIIS solution               ....      35.372 sec  (  8.6%)
SOSCF solution              ....      27.278 sec  (  6.7%)
Grid generation             ....       0.058 sec  (  0.0%)
Finished LeanSCF after 418.8 sec

Maximum memory used throughout the entire LEANSCF-calculation: 9.6 MB

-------------------------   --------------------
FINAL SINGLE POINT ENERGY      -500.077576699836
-------------------------   --------------------



           ************************************************************
           *        Program running with 2 parallel MPI-processes     *
           *              working on a common directory               *
           ************************************************************

------------------------------------------------------------------------------
                              ORCA PROPERTY CALCULATIONS
------------------------------------------------------------------------------

GBWName                                 ... orca.gbw
Number of atoms                         ...      5
Number of basis functions               ...    110
Max core memory                         ...   1024 MB

Electric properties:
Dipole moment                           ... YES
Quadrupole moment                       ...  NO
Static polarizability (Dipole/Dipole)   ...  NO
Static polarizability (Dipole/Quad.)    ...  NO
Static polarizability (Quad./Quad.)     ...  NO
Static polarizability (Velocity)        ...  NO

Atomic electric properties:
Dipole moment                           ...  NO
Quadrupole moment                       ...  NO
Static polarizability                   ...  NO

Choice of electric origin               ... Center of mass
Position of electric origin             ...     9.267439    -0.000323    -0.000190

General magnetic properties:
Magnetizability                         ...  NO

EPR properties:
g-Tensor (aka g-matrix)                 ...  NO
Zero-Field splitting spin-orbit         ...  NO
Zero-field splitting spin-spin          ...  NO
Hyperfine couplings                     ...  NO (   0 nuclei)
Quadrupole couplings                    ...  NO (   0 nuclei)
Contact density                         ...  NO (   0 nuclei)

NMR properties:
Chemical shifts                         ...  NO (   0 nuclei)
Spin-rotation constants                 ...  NO (   0 nuclei)
Spin-spin couplings                     ...  NO (   0 nuclei,    0 pairs)

Choice of magnetic origin               ... GIAO
Position of magnetic origin             ...     0.000000     0.000000     0.000000

Properties with geometric perturbations:
SCF Hessian                             ...  NO
IR spectrum                             ...  NO
VCD spectrum                            ...  NO
X-ray spectroscopy properties:
SCF XES/XAS/RIXS spectra                ...  NO


-------------
DIPOLE MOMENT
-------------

Method             : SCF
Type of density    : Electron Density
Multiplicity       :   2
Irrep              :   0
Energy             :  -500.0775766998356175 Eh
Relativity type    : 
Basis              : AO
                                X                 Y                 Z
Electronic contribution:     12.780043252      -0.000664246      -0.000165328
Nuclear contribution   :    -16.631056223       0.000883476       0.000251950
                        -----------------------------------------
Total Dipole Moment    :     -3.851012971       0.000219231       0.000086622
                        -----------------------------------------
Magnitude (a.u.)       :      3.851012978
Magnitude (Debye)      :      9.788497086



--------------------
Rotational spectrum 
--------------------
 
Rotational constants in cm-1:             4.801377             0.032477             0.032477 
Rotational constants in MHz :        143941.673722           973.634151           973.634038 

Dipole components along the rotational axes: 
x,y,z [a.u.] :    -3.851013    -0.000030    -0.000029 
x,y,z [Debye]:    -9.788497    -0.000075    -0.000073 

 

Dipole moment calculation done in   3.0 sec 

Maximum memory used throughout the entire PROP-calculation: 5.2 MB

         *************************************************************
                               MULTIPLE XYZ STEP   2
         *************************************************************
---------------------------------
CARTESIAN COORDINATES (ANGSTROEM)
---------------------------------
  C      0.009847    0.000108   -0.000013
  Cl     6.908284   -0.000317   -0.000202
  H      0.014151    0.127898   -1.069947
  H      0.002725    0.862784    0.645631
  H      0.009853   -0.990393    0.424291

----------------------------
CARTESIAN COORDINATES (A.U.)
----------------------------
  NO LB      ZA    FRAG     MASS         X           Y           Z
   0 C     6.0000    0    12.011    0.018608    0.000204   -0.000025
   1 Cl   17.0000    0    35.453   13.054765   -0.000599   -0.000382
   2 H     1.0000    0     1.008    0.026742    0.241692   -2.021907
   3 H     1.0000    0     1.008    0.005150    1.630425    1.220066
   4 H     1.0000    0     1.008    0.018619   -1.871572    0.801794

--------------------------------
INTERNAL COORDINATES (ANGSTROEM)
--------------------------------
 C      0   0   0     0.000000000000     0.00000000     0.00000000
 Cl     1   0   0     6.898437015681     0.00000000     0.00000000
 H      1   2   0     1.077547016548    89.77000525     0.00000000
 H      1   2   3     1.077551288151    90.38246185   239.99907883
 H      1   2   3     1.077555620584    89.99705437   119.99999252

---------------------------
INTERNAL COORDINATES (A.U.)
---------------------------
 C      0   0   0     0.000000000000     0.00000000     0.00000000
 Cl     1   0   0    13.036156711742     0.00000000     0.00000000
 H      1   2   0     2.036268757700    89.77000525     0.00000000
 H      1   2   3     2.036276829860    90.38246185   239.99907883
 H      1   2   3     2.036285016972    89.99705437   119.99999252



           ************************************************************
           *        Program running with 2 parallel MPI-processes     *
           *              working on a common directory               *
           ************************************************************
------------------------------------------------------------------------------
                   ___                                                        
                  /   \      - P O W E R E D   B Y -                         
                 /     \                                                     
                 |  |  |   _    _      __       _____    __    __             
                 |  |  |  | |  | |    /  \     |  _  \  |  |  /  |          
                  \  \/   | |  | |   /    \    | | | |  |  | /  /          
                 / \  \   | |__| |  /  /\  \   | |_| |  |  |/  /          
                |  |  |   |  __  | /  /__\  \  |    /   |      \           
                |  |  |   | |  | | |   __   |  |    \   |  |\   \          
                \     /   | |  | | |  |  |  |  | |\  \  |  | \   \       
                 \___/    |_|  |_| |__|  |__|  |_| \__\ |__|  \__/        
                                                                              
                      - O R C A' S   B I G   F R I E N D -                    
                                      &                                       
                       - I N T E G R A L  F E E D E R -                       
                                                                              
 v1 FN, 2020, v2 2021, v3 2022-2024                                           
------------------------------------------------------------------------------


----------------------
SHARK INTEGRAL PACKAGE
----------------------

Number of atoms                             ...      5
Number of basis functions                   ...    110
Number of shells                            ...     44
Maximum angular momentum                    ...      3
Integral batch strategy                     ... SHARK/LIBINT Hybrid
RI-J (if used) integral strategy            ... SPLIT-RIJ (Revised 2003 algorithm where possible)
Printlevel                                  ...      1
Contraction scheme used                     ... SEGMENTED contraction
Prescreening option                         ... SCHWARTZ
   Thresh                                   ... 1.000e-10
   Tcut                                     ... 1.000e-11
   Tpresel                                  ... 1.000e-11 
Coulomb Range Separation                    ... NOT USED
Exchange Range Separation                   ... Long Range
   Mu parameter                             ... 3.000e-01
   Scaling (regular/separated)              ... 1.500e-01 8.500e-01
Multipole approximations                    ... NOT USED
Finite Nucleus Model                        ... NOT USED
CABS basis                                  ... NOT available
Auxiliary Coulomb fitting basis             ... AVAILABLE
   # of basis functions in Aux-J            ...    133
   # of shells in Aux-J                     ...     47
   Maximum angular momentum in Aux-J        ...      4
Auxiliary J/K fitting basis                 ... NOT available
Auxiliary Correlation fitting basis         ... NOT available
Auxiliary 'external' fitting basis          ... NOT available

Checking pre-screening integrals            ... done (  0.2 sec) Dimension = 44
Check shell pair data                       ... done (  0.5 sec)
Shell pair information
Shell pair cut-off parameter TPreSel        ...   1.0e-11
Total number of shell pairs                 ...       990
Shell pairs after pre-screening             ...       793
Total number of primitive shell pairs       ...      2768
Primitive shell pairs kept                  ...      1892
          la=0 lb=0:    186 shell pairs
          la=1 lb=0:    256 shell pairs
          la=1 lb=1:    101 shell pairs
          la=2 lb=0:     99 shell pairs
          la=2 lb=1:     74 shell pairs
          la=2 lb=2:     18 shell pairs
          la=3 lb=0:     28 shell pairs
          la=3 lb=1:     21 shell pairs
          la=3 lb=2:      8 shell pairs
          la=3 lb=3:      2 shell pairs

Calculating one electron integrals          ... done (  0.0 sec)
Calculating RI/J V-Matrix + Cholesky decomp.... done (  0.0 sec)
Calculating Nuclear repulsion               ... done (  0.0 sec) ENN=     21.379466472136 Eh

Diagonalization of the overlap matrix:
Smallest eigenvalue                        ... 6.587e-05
Time for diagonalization                   ...    0.001 sec
Threshold for overlap eigenvalues          ... 1.000e-07
Number of eigenvalues below threshold      ... 0
Time for construction of square roots      ...    0.016 sec
Total time needed                          ...    1.056 sec

-------------------
DFT GRID GENERATION
-------------------

General Integration Accuracy     IntAcc      ... 4.388
Radial Grid Type                 RadialGrid  ... OptM3 with GC (2021)
Angular Grid (max. ang.)         AngularGrid ... 4 (Lebedev-302)
Angular grid pruning method      GridPruning ... 4 (adaptive)
Weight generation scheme         WeightScheme... mBecke (2022)
Basis function cutoff            BFCut       ... 1.0000e-10
Integration weight cutoff        WCut        ... 1.0000e-14
Partially contracted basis set               ... off
Rotationally invariant grid construction     ... off
Angular grids for H and He will be reduced by one unit
Diffuse basis detected: some atoms will have their outermost
                        angular grid increased by 1.

Total number of grid points                  ...    24728
Total number of batches                      ...      389
Average number of points per batch           ...       63
Average number of grid points per atom       ...     4946

--------------------
COSX GRID GENERATION
--------------------

GRIDX 1
-------
General Integration Accuracy     IntAcc      ... 3.816
Radial Grid Type                 RadialGrid  ... OptM3 with GC (2021)
Angular Grid (max. ang.)         AngularGrid ... 1 (Lebedev-50)
Angular grid pruning method      GridPruning ... 4 (adaptive)
Weight generation scheme         WeightScheme... mBecke (2022)
Basis function cutoff            BFCut       ... 1.0000e-10
Integration weight cutoff        WCut        ... 1.0000e-14
Partially contracted basis set               ... on
Rotationally invariant grid construction     ... off
Angular grids for H and He will be reduced by one unit
Diffuse basis detected: some atoms will have their outermost
                        angular grid increased by 1.

Total number of grid points                  ...     4363
Total number of batches                      ...       37
Average number of points per batch           ...      117
Average number of grid points per atom       ...      873
UseSFitting                                  ... on

GRIDX 2
-------
General Integration Accuracy     IntAcc      ... 4.020
Radial Grid Type                 RadialGrid  ... OptM3 with GC (2021)
Angular Grid (max. ang.)         AngularGrid ... 2 (Lebedev-110)
Angular grid pruning method      GridPruning ... 4 (adaptive)
Weight generation scheme         WeightScheme... mBecke (2022)
Basis function cutoff            BFCut       ... 1.0000e-10
Integration weight cutoff        WCut        ... 1.0000e-14
Partially contracted basis set               ... on
Rotationally invariant grid construction     ... off
Angular grids for H and He will be reduced by one unit
Diffuse basis detected: some atoms will have their outermost
                        angular grid increased by 1.

Total number of grid points                  ...     7257
Total number of batches                      ...       60
Average number of points per batch           ...      120
Average number of grid points per atom       ...     1451
UseSFitting                                  ... on

GRIDX 3
-------
General Integration Accuracy     IntAcc      ... 4.338
Radial Grid Type                 RadialGrid  ... OptM3 with GC (2021)
Angular Grid (max. ang.)         AngularGrid ... 3 (Lebedev-194)
Angular grid pruning method      GridPruning ... 4 (adaptive)
Weight generation scheme         WeightScheme... mBecke (2022)
Basis function cutoff            BFCut       ... 1.0000e-10
Integration weight cutoff        WCut        ... 1.0000e-14
Partially contracted basis set               ... on
Rotationally invariant grid construction     ... off
Angular grids for H and He will be reduced by one unit
Diffuse basis detected: some atoms will have their outermost
                        angular grid increased by 1.

Total number of grid points                  ...    17322
Total number of batches                      ...      139
Average number of points per batch           ...      124
Average number of grid points per atom       ...     3464
UseSFitting                                  ... on
Initializing property integral containers    ... done (  6.4 sec)

SHARK setup successfully completed in  15.8 seconds

Maximum memory used throughout the entire STARTUP-calculation: 15.4 MB


           ************************************************************
           *        Program running with 2 parallel MPI-processes     *
           *              working on a common directory               *
           ************************************************************
             **** ENERGY FILE WAS UPDATED (orca.en.tmp) ****
Finished Guess after  17.8 sec
Maximum memory used throughout the entire GUESS-calculation: 8.5 MB


           ************************************************************
           *        Program running with 2 parallel MPI-processes     *
           *              working on a common directory               *
           ************************************************************
----------------------------------------D-I-I-S--------------------------------------------
Iteration    Energy (Eh)           Delta-E    RMSDP     MaxDP     DIISErr   Damp  Time(sec)
-------------------------------------------------------------------------------------------
               ***  Starting incremental Fock matrix formation  ***
                              *** Initializing SOSCF ***
---------------------------------------S-O-S-C-F--------------------------------------
Iteration    Energy (Eh)           Delta-E    RMSDP     MaxDP     MaxGrad    Time(sec)
--------------------------------------------------------------------------------------
    1    -500.1909825982767757     0.00e+00  2.79e-05  1.10e-03  9.57e-05    45.8
               *** Restarting incremental Fock matrix formation ***
    2    -500.1909833981110864    -8.00e-07  1.26e-05  5.88e-04  1.54e-04    30.9
    3    -500.1909835839507537    -1.86e-07  4.33e-06  1.30e-04  6.64e-05    35.6
                 **** Energy Check signals convergence ****

               *****************************************************
               *                     SUCCESS                       *
               *           SCF CONVERGED AFTER   3 CYCLES          *
               *****************************************************


------------------
NL GRID GENERATION
------------------

General Integration Accuracy     IntAcc      ... 4.004
Radial Grid Type                 RadialGrid  ... OptM3 with GC (2021)
Angular Grid (max. ang.)         AngularGrid ... 2 (Lebedev-110)
Angular grid pruning method      GridPruning ... 4 (adaptive)
Weight generation scheme         WeightScheme... mBecke (2022)
Basis function cutoff            BFCut       ... 1.0000e-10
Integration weight cutoff        WCut        ... 1.0000e-14
Partially contracted basis set               ... off
Rotationally invariant grid construction     ... off
Angular grids for H and He will be reduced by one unit
Diffuse basis detected: some atoms will have their outermost
                        angular grid increased by 1.

Total number of grid points                  ...     8465
Total number of batches                      ...      135
Average number of points per batch           ...       62
Average number of grid points per atom       ...     1693
Final grid set up in    0.8 sec

-------------------------------------------------------------------------------
                    post-SCF DFT-NL dispersion correction                      
-------------------------------------------------------------------------------

SCF Energy:     -500.190983584 
NL    Energy:      0.113417630 
SC+NL Energy:   -500.077565954 
NL done in  :              3.4 sec
-------------------------------------------------------------------------------
Recomputing exchange energy using gridx3       ... done (    2.774 sec)
Old exchange energy                            :     -8.700243167 Eh
New exchange energy                            :     -8.700244786 Eh
Exchange energy change after final integration :     -0.000001619 Eh
Total energy after final integration           :   -500.077567572 Eh
             **** ENERGY FILE WAS UPDATED (orca.en.tmp) ****

----------------
TOTAL SCF ENERGY
----------------

Total Energy       :       -500.07756757248825 Eh          -13607.80242 eV

Components:
Nuclear Repulsion  :         21.37946647213592 Eh             581.76486 eV
Electronic Energy  :       -521.57045005608666 Eh          -14192.65349 eV
One Electron Energy:       -736.77755458275192 Eh          -20048.73652 eV
Two Electron Energy:        215.20710452666532 Eh            5856.08303 eV

Virial components:
Potential Energy   :       -999.27937630772828 Eh          -27191.77423 eV
Kinetic Energy     :        499.20180873524004 Eh           13583.97181 eV
Virial Ratio       :          2.00175431823748

DFT components:
N(Alpha)           :       14.000002439755 electrons
N(Beta)            :       12.999918237552 electrons
N(Total)           :       26.999920677307 electrons
NL Energy, E(C,NL) :        0.113417630058 Eh       
E(XC)              :      -26.178414305752 Eh       

---------------
SCF CONVERGENCE
---------------

  Last Energy change         ...    1.8584e-07  Tolerance :   1.0000e-06
  Last MAX-Density change    ...    1.3003e-04  Tolerance :   1.0000e-05
  Last RMS-Density change    ...    4.3315e-06  Tolerance :   1.0000e-06
  Last DIIS Error            ...    5.5526e-04  Tolerance :   1.0000e-06
  Last Orbital Gradient      ...    6.6400e-05  Tolerance :   5.0000e-05
  Last Orbital Rotation      ...    2.0019e-04  Tolerance :   5.0000e-05


----------------------
UHF SPIN CONTAMINATION
----------------------

Warning: in a DFT calculation there is little theoretical justification to 
         calculate <S**2> as in Hartree-Fock theory. We will do it anyways
         but you should keep in mind that the values have only limited relevance

Expectation value of <S**2>     :     0.753199
Ideal value S*(S+1) for S=0.5   :     0.750000
Deviation                       :     0.003199

Total SCF time: 0 days 0 hours 2 min 16 sec 
Finished LeanSCF after 143.5 sec

Maximum memory used throughout the entire LEANSCF-calculation: 9.8 MB

-------------------------   --------------------
FINAL SINGLE POINT ENERGY      -500.077567572488
-------------------------   --------------------



           ************************************************************
           *        Program running with 2 parallel MPI-processes     *
           *              working on a common directory               *
           ************************************************************

------------------------------------------------------------------------------
                              ORCA PROPERTY CALCULATIONS
------------------------------------------------------------------------------

GBWName                                 ... orca.gbw
Number of atoms                         ...      5
Number of basis functions               ...    110
Max core memory                         ...   1024 MB

Electric properties:
Dipole moment                           ... YES
Quadrupole moment                       ...  NO
Static polarizability (Dipole/Dipole)   ...  NO
Static polarizability (Dipole/Quad.)    ...  NO
Static polarizability (Quad./Quad.)     ...  NO
Static polarizability (Velocity)        ...  NO

Atomic electric properties:
Dipole moment                           ...  NO
Quadrupole moment                       ...  NO
Static polarizability                   ...  NO

Choice of electric origin               ... Center of mass
Position of electric origin             ...     9.172576    -0.000361    -0.000275

General magnetic properties:
Magnetizability                         ...  NO

EPR properties:
g-Tensor (aka g-matrix)                 ...  NO
Zero-Field splitting spin-orbit         ...  NO
Zero-field splitting spin-spin          ...  NO
Hyperfine couplings                     ...  NO (   0 nuclei)
Quadrupole couplings                    ...  NO (   0 nuclei)
Contact density                         ...  NO (   0 nuclei)

NMR properties:
Chemical shifts                         ...  NO (   0 nuclei)
Spin-rotation constants                 ...  NO (   0 nuclei)
Spin-spin couplings                     ...  NO (   0 nuclei,    0 pairs)

Choice of magnetic origin               ... GIAO
Position of magnetic origin             ...     0.000000     0.000000     0.000000

Properties with geometric perturbations:
SCF Hessian                             ...  NO
IR spectrum                             ...  NO
VCD spectrum                            ...  NO
X-ray spectroscopy properties:
SCF XES/XAS/RIXS spectra                ...  NO


-------------
DIPOLE MOMENT
-------------

Method             : SCF
Type of density    : Electron Density
Multiplicity       :   2
Irrep              :   0
Energy             :  -500.0775675724882490 Eh
Relativity type    : 
Basis              : AO
                                X                 Y                 Z
Electronic contribution:     12.601056318      -0.000738202      -0.000325851
Nuclear contribution   :    -16.393802888       0.000978027       0.000461802
                        -----------------------------------------
Total Dipole Moment    :     -3.792746571       0.000239826       0.000135951
                        -----------------------------------------
Magnitude (a.u.)       :      3.792746581
Magnitude (Debye)      :      9.640395673



--------------------
Rotational spectrum 
--------------------
 
Rotational constants in cm-1:             4.801180             0.033434             0.033434 
Rotational constants in MHz :        143935.762543          1002.326869          1002.326783 

Dipole components along the rotational axes: 
x,y,z [a.u.] :     3.792747     0.000013     0.000052 
x,y,z [Debye]:     9.640396     0.000032     0.000131 

 

Dipole moment calculation done in   3.2 sec 

Maximum memory used throughout the entire PROP-calculation: 5.3 MB

         *************************************************************
                               MULTIPLE XYZ STEP   3
         *************************************************************
---------------------------------
CARTESIAN COORDINATES (ANGSTROEM)
---------------------------------
  C      0.030218    0.000116    0.000007
  Cl     6.827093   -0.000349   -0.000281
  H      0.034747    0.127908   -1.069927
  H      0.022669    0.862792    0.645649
  H      0.030133   -0.990387    0.424312

----------------------------
CARTESIAN COORDINATES (A.U.)
----------------------------
  NO LB      ZA    FRAG     MASS         X           Y           Z
   0 C     6.0000    0    12.011    0.057104    0.000219    0.000013
   1 Cl   17.0000    0    35.453   12.901336   -0.000660   -0.000531
   2 H     1.0000    0     1.008    0.065662    0.241711   -2.021869
   3 H     1.0000    0     1.008    0.042838    1.630441    1.220100
   4 H     1.0000    0     1.008    0.056943   -1.871560    0.801833

--------------------------------
INTERNAL COORDINATES (ANGSTROEM)
--------------------------------
 C      0   0   0     0.000000000000     0.00000000     0.00000000
 Cl     1   0   0     6.796875022008     0.00000000     0.00000000
 H      1   2   0     1.077548175935    89.75723592     0.00000000
 H      1   2   3     1.077552996628    90.40599256   239.99927528
 H      1   2   3     1.077557856108    90.00187244   120.00010768

---------------------------
INTERNAL COORDINATES (A.U.)
---------------------------
 C      0   0   0     0.000000000000     0.00000000     0.00000000
 Cl     1   0   0    12.844232358085     0.00000000     0.00000000
 H      1   2   0     2.036270948624    89.75723592     0.00000000
 H      1   2   3     2.036280058412    90.40599256   239.99927528
 H      1   2   3     2.036289241499    90.00187244   120.00010768



           ************************************************************
           *        Program running with 2 parallel MPI-processes     *
           *              working on a common directory               *
           ************************************************************
------------------------------------------------------------------------------
                   ___                                                        
                  /   \      - P O W E R E D   B Y -                         
                 /     \                                                     
[...]
             **** ENERGY FILE WAS UPDATED (orca.en.tmp) ****
Finished Guess after  18.0 sec
Maximum memory used throughout the entire GUESS-calculation: 8.9 MB


           ************************************************************
           *        Program running with 2 parallel MPI-processes     *
           *              working on a common directory               *
           ************************************************************
----------------------------------------D-I-I-S--------------------------------------------
Iteration    Energy (Eh)           Delta-E    RMSDP     MaxDP     DIISErr   Damp  Time(sec)
-------------------------------------------------------------------------------------------
               ***  Starting incremental Fock matrix formation  ***
    1    -489.5549671776215064     0.00e+00  2.42e-02  5.22e-01  5.42e-01  0.700  34.6
Warning: op=0 Small HOMO/LUMO gap (   0.010) - skipping pre-diagonalization
         Will do a full diagonalization
    2    -490.4020354240892630    -8.47e-01  1.68e-02  3.32e-01  3.78e-01  0.700  41.6
    3    -491.0602533562238250    -6.58e-01  1.03e-02  1.92e-01  2.65e-01  0.700  34.5
                               ***Turning on AO-DIIS***
    4    -491.5449147231828420    -4.85e-01  6.18e-03  1.42e-01  1.87e-01  0.700  31.9
    5    -491.9046771535319067    -3.60e-01  5.84e-03  1.93e-01  1.32e-01  0.700  34.4
    6    -492.1730465106711563    -2.68e-01  5.63e-03  2.39e-01  9.29e-02  0.700  33.6
    7    -492.3715129164103246    -1.98e-01  1.75e-02  8.50e-01  6.53e-02  0.000  39.3
    8    -492.8804091912410286    -5.09e-01  4.86e-03  2.12e-01  1.02e-02  0.000  32.9
    9    -492.8864548392670031    -6.05e-03  4.50e-03  1.42e-01  7.80e-03  0.000  32.1
   10    -492.8901735706552927    -3.72e-03  3.87e-03  1.48e-01  5.64e-03  0.000  34.1
   11    -492.8922211763499490    -2.05e-03  2.46e-03  1.01e-01  3.84e-03  0.000  34.0
                              *** Initializing SOSCF ***
---------------------------------------S-O-S-C-F--------------------------------------
Iteration    Energy (Eh)           Delta-E    RMSDP     MaxDP     MaxGrad    Time(sec)
--------------------------------------------------------------------------------------
   12    -492.8930465548528446    -8.25e-04  1.73e-03  6.61e-02  2.66e-03    33.9
               *** Restarting incremental Fock matrix formation ***
   13    -492.8934335609654909    -3.87e-04  2.57e-03  1.45e-01  2.98e-03    26.5
   14    -492.8936122500526835    -1.79e-04  3.88e-03  2.24e-01  1.56e-03    27.8
   15    -492.8937309602889627    -1.19e-04  3.92e-04  1.70e-02  8.41e-04    42.2
   16    -492.8937519310737798    -2.10e-05  7.54e-04  1.54e-02  5.39e-04    32.6
   17    -492.8937792159852052    -2.73e-05  5.56e-04  2.60e-02  5.23e-04    32.9
   18    -492.8937892286392071    -1.00e-05  3.54e-04  1.89e-02  2.90e-04    39.5
   19    -492.8937922651937242    -3.04e-06  2.18e-04  1.26e-02  1.79e-04    29.7
   20    -492.8937933327279097    -1.07e-06  5.05e-05  2.05e-03  8.11e-05    31.1
   21    -492.8937935885147681    -2.56e-07  3.31e-05  1.54e-03  3.32e-05    37.2
                 **** Energy Check signals convergence ****

               *****************************************************
               *                     SUCCESS                       *
               *           SCF CONVERGED AFTER  21 CYCLES          *
               *****************************************************


------------------
NL GRID GENERATION
------------------

General Integration Accuracy     IntAcc      ... 4.004
Radial Grid Type                 RadialGrid  ... OptM3 with GC (2021)
Angular Grid (max. ang.)         AngularGrid ... 2 (Lebedev-110)
Angular grid pruning method      GridPruning ... 4 (adaptive)
Weight generation scheme         WeightScheme... mBecke (2022)
Basis function cutoff            BFCut       ... 1.0000e-10
Integration weight cutoff        WCut        ... 1.0000e-14
Partially contracted basis set               ... off
Rotationally invariant grid construction     ... off
Angular grids for H and He will be reduced by one unit
Diffuse basis detected: some atoms will have their outermost
                        angular grid increased by 1.

Total number of grid points                  ...     8473
Total number of batches                      ...      135
Average number of points per batch           ...       62
Average number of grid points per atom       ...     1695
Final grid set up in    0.1 sec

-------------------------------------------------------------------------------
                    post-SCF DFT-NL dispersion correction                      
-------------------------------------------------------------------------------

SCF Energy:     -492.893793589 
NL    Energy:      0.112004039 
SC+NL Energy:   -492.781789550 
NL done in  :              1.9 sec
-------------------------------------------------------------------------------
Recomputing exchange energy using gridx3       ... done (    3.684 sec)
Old exchange energy                            :     -8.842109742 Eh
New exchange energy                            :     -8.842052612 Eh
Exchange energy change after final integration :      0.000057129 Eh
Total energy after final integration           :   -492.781732421 Eh
             **** ENERGY FILE WAS UPDATED (orca.en.tmp) ****

----------------
TOTAL SCF ENERGY
----------------

Total Energy       :       -492.78173242087286 Eh          -13409.27265 eV

Components:
Nuclear Repulsion  :        103.48779945179068 Eh            2816.04619 eV
Electronic Energy  :       -596.38159304030546 Eh          -16228.36818 eV
One Electron Energy:       -873.29481730153157 Eh          -23763.56009 eV
Two Electron Energy:        276.91322426122616 Eh            7535.19191 eV

Virial components:
Potential Energy   :      -1003.10565254605376 Eh          -27295.89250 eV
Kinetic Energy     :        510.32392012518085 Eh           13886.61985 eV
Virial Ratio       :          1.96562538612730

DFT components:
N(Alpha)           :       14.000237657409 electrons
N(Beta)            :       13.000053413470 electrons
N(Total)           :       27.000291070880 electrons
NL Energy, E(C,NL) :        0.112004038524 Eh       
E(XC)              :      -27.134558320459 Eh       

---------------
SCF CONVERGENCE
---------------

  Last Energy change         ...    2.5579e-07  Tolerance :   1.0000e-06
  Last MAX-Density change    ...    1.5351e-03  Tolerance :   1.0000e-05
  Last RMS-Density change    ...    3.3147e-05  Tolerance :   1.0000e-06
  Last DIIS Error            ...    2.6555e-03  Tolerance :   1.0000e-06
  Last Orbital Gradient      ...    3.3176e-05  Tolerance :   5.0000e-05
  Last Orbital Rotation      ...    1.7329e-04  Tolerance :   5.0000e-05


----------------------
UHF SPIN CONTAMINATION
----------------------

Warning: in a DFT calculation there is little theoretical justification to 
         calculate <S**2> as in Hartree-Fock theory. We will do it anyways
         but you should keep in mind that the values have only limited relevance

Expectation value of <S**2>     :     1.793235
Ideal value S*(S+1) for S=0.5   :     0.750000
Deviation                       :     1.043235

Total SCF time: 0 days 0 hours 12 min 23 sec 
Finished LeanSCF after 748.5 sec

Maximum memory used throughout the entire LEANSCF-calculation: 20.2 MB

-------------------------   --------------------
FINAL SINGLE POINT ENERGY      -492.781732420873
-------------------------   --------------------



           ************************************************************
           *        Program running with 2 parallel MPI-processes     *
           *              working on a common directory               *
           ************************************************************

------------------------------------------------------------------------------
                              ORCA PROPERTY CALCULATIONS
------------------------------------------------------------------------------

GBWName                                 ... orca.gbw
Number of atoms                         ...      5
Number of basis functions               ...    110
Max core memory                         ...   1024 MB

Electric properties:
Dipole moment                           ... YES
Quadrupole moment                       ...  NO
Static polarizability (Dipole/Dipole)   ...  NO
Static polarizability (Dipole/Quad.)    ...  NO
Static polarizability (Quad./Quad.)     ...  NO
Static polarizability (Velocity)        ...  NO

Atomic electric properties:
Dipole moment                           ...  NO
Quadrupole moment                       ...  NO
Static polarizability                   ...  NO

Choice of electric origin               ... Center of mass
Position of electric origin             ...     5.379802     0.177124     0.017548

General magnetic properties:
Magnetizability                         ...  NO

EPR properties:
g-Tensor (aka g-matrix)                 ...  NO
Zero-Field splitting spin-orbit         ...  NO
Zero-field splitting spin-spin          ...  NO
Hyperfine couplings                     ...  NO (   0 nuclei)
Quadrupole couplings                    ...  NO (   0 nuclei)
Contact density                         ...  NO (   0 nuclei)

NMR properties:
Chemical shifts                         ...  NO (   0 nuclei)
Spin-rotation constants                 ...  NO (   0 nuclei)
Spin-spin couplings                     ...  NO (   0 nuclei,    0 pairs)

Choice of magnetic origin               ... GIAO
Position of magnetic origin             ...     0.000000     0.000000     0.000000

Properties with geometric perturbations:
SCF Hessian                             ...  NO
IR spectrum                             ...  NO
VCD spectrum                            ...  NO
X-ray spectroscopy properties:
SCF XES/XAS/RIXS spectra                ...  NO


-------------
DIPOLE MOMENT
-------------

Method             : SCF
Type of density    : Electron Density
Multiplicity       :   2
Irrep              :   0
Energy             :  -492.7817324208728564 Eh
Relativity type    : 
Basis              : AO
                                X                 Y                 Z
Electronic contribution:     12.270840906      -0.933850671      -0.327086383
Nuclear contribution   :     -7.298172676      -0.405789981      -0.017146373
                        -----------------------------------------
Total Dipole Moment    :      4.972668230      -1.339640651      -0.344232756
                        -----------------------------------------
Magnitude (a.u.)       :      5.161449660
Magnitude (Debye)      :     13.119362423



--------------------
Rotational spectrum 
--------------------
 
Rotational constants in cm-1:             1.125793             0.582080             0.471710 
Rotational constants in MHz :         33750.435059         17450.320338         14141.511275 

Dipole components along the rotational axes: 
x,y,z [a.u.] :     4.964349    -0.855320    -1.124379 
x,y,z [Debye]:    12.618373    -2.174050    -2.857944 

 

Dipole moment calculation done in   1.8 sec 

Maximum memory used throughout the entire PROP-calculation: 13.1 MB
                              **** MULTIPLE XYZ DONE ***

                         SUMMARY OF THE CALCULATED SURFACE

-------------------------
MULTIPLE XYZ SCAN RESULTS
-------------------------

The Calculated Surface using the 'Actual Energy'
   1.00000000 -500.07757670
   2.00000000 -500.07756757
   3.00000000 -500.07756547
   4.00000000 -500.07756376
   5.00000000 -500.07756250
   6.00000000 -500.07756209
   7.00000000 -500.07756288
   8.00000000 -500.07756545
   9.00000000 -500.07757012
  10.00000000 -500.07757687
  11.00000000 -500.07758529
  12.00000000 -500.07759582
  13.00000000 -500.07760610
  14.00000000 -500.07761638
  15.00000000 -500.07762376
  16.00000000 -500.07762707
  17.00000000 -500.07762730
  18.00000000 -500.07762659
  19.00000000 -500.07762729
  20.00000000 -500.07763249
  21.00000000 -500.07765003
  22.00000000 -500.07768673
  23.00000000 -500.07773011
  24.00000000 -500.07778339
  25.00000000 -500.07784093
  26.00000000 -500.07790513
  27.00000000 -500.07797636
  28.00000000 -500.07806025
  29.00000000 -500.07815802
  30.00000000 -500.07825529
  31.00000000 -500.07836934
  32.00000000 -500.07850066
  33.00000000 -500.07863823
  34.00000000 -500.07877073
  35.00000000 -500.07888506
  36.00000000 -500.07897553
  37.00000000 -500.07901450
  38.00000000 -500.07897489
  39.00000000 -500.07880700
  40.00000000 -500.07845148
  41.00000000 -500.07783544
  42.00000000 -500.07686500
  43.00000000 -500.07542032
  44.00000000 -500.07336934
  45.00000000 -500.07059783
  46.00000000 -500.06689464
  47.00000000 -500.06204959
  48.00000000 -500.05596992
  49.00000000 -500.04882365
  50.00000000 -500.04153083
  51.00000000 -500.03599987
  52.00000000 -500.03279645
  53.00000000 -500.02838776
  54.00000000 -500.02460130
  55.00000000 -499.99713186
  56.00000000 -499.94282429
  57.00000000 -499.84587163
  58.00000000 -499.68092425
  59.00000000 -499.40732318
  60.00000000 -498.95845558
  61.00000000 -498.22580673
  62.00000000 -497.04609752
  63.00000000 -495.26092811
  64.00000000 -492.78173242

The Calculated Surface using the SCF energy
   1.00000000 -500.07757670
   2.00000000 -500.07756757
   3.00000000 -500.07756547
   4.00000000 -500.07756376
   5.00000000 -500.07756250
   6.00000000 -500.07756209
   7.00000000 -500.07756288
   8.00000000 -500.07756545
   9.00000000 -500.07757012
  10.00000000 -500.07757687
  11.00000000 -500.07758529
  12.00000000 -500.07759582
  13.00000000 -500.07760610
  14.00000000 -500.07761638
  15.00000000 -500.07762376
  16.00000000 -500.07762707
  17.00000000 -500.07762730
  18.00000000 -500.07762659
  19.00000000 -500.07762729
  20.00000000 -500.07763249
  21.00000000 -500.07765003
  22.00000000 -500.07768673
  23.00000000 -500.07773011
  24.00000000 -500.07778339
  25.00000000 -500.07784093
  26.00000000 -500.07790513
  27.00000000 -500.07797636
  28.00000000 -500.07806025
  29.00000000 -500.07815802
  30.00000000 -500.07825529
  31.00000000 -500.07836934
  32.00000000 -500.07850066
  33.00000000 -500.07863823
  34.00000000 -500.07877073
  35.00000000 -500.07888506
  36.00000000 -500.07897553
  37.00000000 -500.07901450
  38.00000000 -500.07897489
  39.00000000 -500.07880700
  40.00000000 -500.07845148
  41.00000000 -500.07783544
  42.00000000 -500.07686500
  43.00000000 -500.07542032
  44.00000000 -500.07336934
  45.00000000 -500.07059783
  46.00000000 -500.06689464
  47.00000000 -500.06204959
  48.00000000 -500.05596992
  49.00000000 -500.04882365
  50.00000000 -500.04153083
  51.00000000 -500.03599987
  52.00000000 -500.03279645
  53.00000000 -500.02838776
  54.00000000 -500.02460130
  55.00000000 -499.99713186
  56.00000000 -499.94282429
  57.00000000 -499.84587163
  58.00000000 -499.68092425
  59.00000000 -499.40732318
  60.00000000 -498.95845558
  61.00000000 -498.22580673
  62.00000000 -497.04609752
  63.00000000 -495.26092811
  64.00000000 -492.78173242


--------------------------------
SUGGESTED CITATIONS FOR THIS RUN
--------------------------------

Below you find a list of papers that are relevant to this ORCA run
We neither can nor want to force you to cite these papers, but we appreciate if you do
You receive ORCA, which is the product of decades of hard work by many enthusiastic individuals, for free
The only thing we kindly ask in return is that you cite our papers,
We deeply appreciate it, if you show your appreciation for ORCA by not just citing the generic ORCA reference.

Please note that relegating all ORCA citations to the supporting information does *not* help us.
SI sections are not indexed - citations you put there will not count into any citation statistics
But we need these citations in order to attract the funding resources that allow us to do what we are doing

Therefore, if you are a happy ORCA user, please consider citing a few of the papers listed below in the main body of your paper

In addition to the list printed below, the program has created the file orca.bibtex that contains the list in bibtex format
You can import this file easily into all common literature databanks and citation aid programs


List of essential papers. We consider these as the minimum necessary citations

  1. Neese,F.
     Software update: the ORCA program system, version 5.0
     WIRES Comput. Molec. Sci., 2022 12(1)e1606
     doi.org/10.1002/wcms.1606

List of papers to cite with high priority. The work reported in these papers was absolutely
necessary for this run to complete.
Our perspective: the developers of density functionals and basis sets usually get cited in chemistry papers
Good! But without the algorithms to do something with them, the functionals or basis sets would not do anything.
Hence, in our opinion, the algorithm design and method developments papers are equally worthy of getting cited

  1. Neese,F.
     An improvement of the resolution of the identity approximation for the formation of the Coulomb matrix
     J. Comp. Chem., 2003 24(14)1740-1747
     doi.org/10.1002/jcc.10318
  2. Neese,F.; Wennmohs,F.; Hansen,A.; Becker,U.
     Efficient, approximate and parallel Hartree-Fock and hybrid DFT calculations. A 'chain-of-spheres' algorithm for the Hartree-Fock exchange
     Chem. Phys., 2009 356(1-3)98-109
     doi.org/10.1016/j.chemphys.2008.10.036
  3. Helmich-Paris,B.; de Souza,B.; Neese,F.; Izsák,R.
     An improved chain of spheres for exchange algorithm
     J. Chem. Phys., 2021 155 104109
     doi.org/doi: 10.1063/5.0058766.
  4. Neese,F.
     The SHARK Integral Generation and Digestion System
     J. Comp. Chem., 2022  1-16
     doi.org/10.1002/jcc.26942
  5. Lehtola,S.; Steigemann,C.; Oliveira,M.; Marques,M.
     Recent developments in Libxc - A comprehensive library of functionals for density functional theory
     Software X, 2018 7 
     doi.org/10.1016/j.softx.2017.11.002

List of suggested additional citations. These are papers that are important in the 'surrounding' of 
of this run, or papers that preceded the highly important papers. If you like your results we are grateful for a citation.

  1. Izsak,R.; Neese,F.
     An overlap fitted chain of spheres exchange method
     J. Chem. Phys., 2011 135 144105
     doi.org/10.1063/1.3646921
  2. Izsak,R.; Hansen,A.; Neese,F.
     The resolution of identity and chain of spheres approximations for the LPNO-CCSD singles Fock term
     Molec. Phys., 2012 110 2413-2417
     doi.org/10.1080/00268976.2012.687466
  3. Neese,F.
     The ORCA program system
     WIRES Comput. Molec. Sci., 2012 2(1)73-78
     doi.org/10.1002/wcms.81
  4. Izsak,R.; Neese,F.; Klopper,W.
     Robust fitting techniques in the chain of spheres approximation to the Fock exchange: The role of the complementary space
     J. Chem. Phys., 2013 139 
     doi.org/10.1063/1.4819264
  5. Neese,F.
     Software update: the ORCA program system, version 4.0
     WIRES Comput. Molec. Sci., 2018 8(1)1-6
     doi.org/10.1002/wcms.1327
  6. Neese,F.; Wennmohs,F.; Becker,U.; Riplinger,C.
     The ORCA quantum chemistry program package
     J. Chem. Phys., 2020 152 Art. No. L224108
     doi.org/10.1063/5.0004608

List of optional additional citations

  1. Neese,F.
     Approximate second-order SCF convergence for spin unrestricted wavefunctions
     Chem. Phys. Lett., 2000 325(1-3)93-98
     doi.org/10.1016/s0009-2614(00)00662-x

Timings for individual modules:

Sum of individual times          ...    18800.197 sec (= 313.337 min)
Startup calculation              ...      517.024 sec (=   8.617 min)   2.8 %
SCF iterations                   ...    18033.864 sec (= 300.564 min)  95.9 %
Property calculations            ...      249.309 sec (=   4.155 min)   1.3 %
                             ****ORCA TERMINATED NORMALLY****
TOTAL RUN TIME: 0 days 5 hours 14 minutes 8 seconds 583 msec
