LAMMPS data file via write_data, version 7 Feb 2024, timestep = 1000000, units = real

3360 atoms
17 atom types
3312 bonds
19 bond types
5760 angles
34 angle types
8064 dihedrals
47 dihedral types

-2.848001496419155 22.04800149641987 xlo xhi
-67.9519059410852 204.92248669173608 ylo yhi
-3.1220355056352656 22.322035505637515 zlo zhi

Masses

1 1.008
2 1.008
3 1.008
4 1.008
5 1.008
6 126.9
7 12.01
8 12.01
9 12.01
10 12.01
11 12.01
12 12.01
13 12.01
14 12.01
15 12.01
16 14.01
17 207.2

Bond Coeffs # harmonic

1 330.6 1.0969
2 330.6 1.0969
3 345.8 1.086
4 345.8 1.086
5 338.7 1.091
6 373.2 1.0304
7 321 1.5156
8 461.1 1.3984
9 450.2 1.4058
10 461.1 1.3984
11 321 1.5156
12 461.1 1.3984
13 450.2 1.4058
14 450.2 1.4058
15 351.4 1.4854
16 450.2 1.4058
17 351.4 1.4854
18 300.9 1.5375
19 283.3 1.511

Angle Coeffs # harmonic

1 39.4 107.58
2 46.8 110.47
3 39.4 107.58
4 46.8 110.47
5 46.34 109.8
6 48.18 119.88
7 48.18 119.88
8 47.98 119.86
9 47.98 119.86
10 48.18 119.88
11 47.98 119.86
12 39.22 109.75
13 46.2 110.56
14 48.65 108.01
15 40.58 108.3
16 45.85 110.11
17 66.26 120.69
18 66.72 118.38
19 64.05 121.11
20 66.62 120.02
21 63.15 112.07
22 63.53 120.77
23 63.43 120.63
24 66.62 120.02
25 63.53 120.77
26 66.26 120.69
27 66.26 120.69
28 66.72 118.38
29 64.05 121.11
30 66.72 118.38
31 64.05 121.11
32 64.05 121.11
33 66.26 120.69
34 64.18 114.21

Dihedral Coeffs # opls

1 0 0 0 0
2 0 0 0 0
3 0 0 0 0
4 0 0 0.311111 0
5 0 0 0.311111 0
6 0 7.25 0 0
7 0 7.25 0 0
8 0 7.25 0 0
9 0 7.25 0 0
10 0 7.25 0 0
11 0 7.25 0 0
12 0 7.25 0 0
13 0 7.25 0 0
14 0 7.25 0 0
15 0 7.25 0 0
16 0 7.25 0 0
17 0 7.25 0 0
18 0 7.25 0 0
19 0 7.25 0 0
20 0 7.25 0 0
21 0 0 0.311111 0
22 0 0 0.311111 0
23 0 0 0.311111 0
24 0 7.25 0 0
25 0 7.25 0 0
26 0 7.25 0 0
27 0 2 0 0
28 0 2 0 0
29 0 7.25 0 0
30 0 0 0.311111 0
31 0 7.25 0 0
32 0 7.25 0 0
33 0 7.25 0 0
34 0 7.25 0 0
35 0 0 0 0
36 0 7.25 0 0
37 0 7.25 0 0
38 0 7.25 0 0
39 0 7.25 0 0
40 0 7.25 0 0
41 0 2 0 0
42 0 2 0 0
43 0 7.25 0 0
44 0 2 0 0
45 0 7.25 0 0
46 0 7.25 0 0
47 0 7.25 0 0

Atoms # full

343 7 4 0.222004 1.5938307781367853 -18.72238302051892 4.211683721285131 0 0 1
344 7 4 0.222004 2.842939422812913 -17.723498931017435 3.4254884140651805 0 0 1
339 7 15 -0.233353 1.7465450248660974 -17.95417961913347 3.4686379594545955 0 0 1
345 7 5 0.314181 2.0041379522080423 -19.274628903715406 1.7141576384199215 0 0 1
1182 27 16 -0.341435 7.6964818367437084 -18.23470906551484 2.91850594737226 0 0 1
486 10 6 -1 -1.6352394875236045 -18.140709670748105 6.749357518222603 0 0 1
483 10 5 0.314181 1.9965784130342035 -19.073914102326228 8.113778020848274 0 0 1
1323 30 5 0.314181 7.951409928675691 -17.51164672967717 8.078358195222162 0 0 1
1179 27 15 -0.233353 8.21069417281759 -17.588927629344713 4.186898741274247 0 0 1
1320 30 16 -0.341435 7.562293084372036 -18.375247211790203 8.52004441123629 0 0 1
1324 30 5 0.314181 6.604646298075252 -18.520376152996366 8.17928002057965 0 0 1
346 7 5 0.314181 0.9270994623633302 -17.945760308460603 1.5643604579341102 0 0 1
348 7 6 -1 -1.8170820435423969 -18.492524528604797 0.696277565768833 0 0 1
342 7 16 -0.341435 1.2983880573944468 -18.618535443031362 2.201859506363406 0 0 1
1183 27 4 0.222004 8.125886685662904 -18.30406374826323 5.001830315234573 0 0 1
347 7 5 0.314181 0.5283213597155499 -19.254576105431166 2.378480374618791 0 0 1
480 10 16 -0.341435 1.3493639885427853 -18.488629468008668 8.622403340387528 0 0 1
1325 30 5 0.314181 8.098666676584024 -19.174208345845397 8.138073893763831 0 0 1
206 4 4 0.222004 2.827840251121497 -17.938387145859394 -2.0590681640091324 0 0 1
484 10 5 0.314181 1.2603052586291847 -17.70939468769665 8.014363733353267 0 0 1
1188 27 6 -1 4.773269884617972 -17.928961288638945 0.6399753056238474 0 0 1
1041 24 15 -0.233353 8.179574410441848 -17.807361518570595 -2.0870963963574316 0 0 1
485 10 5 0.314181 0.41713589410903634 -18.954740348516303 8.674390526516152 0 0 1
1046 24 4 0.222004 9.22820033376258 -17.61738187625185 -2.1483410637588922 0 0 1
1045 24 4 0.222004 8.068149563427447 -18.579752594205736 -1.2673891103320438 0 0 1
1326 30 6 -1 4.523815228042023 -17.898864115550765 6.401730916458259 0 0 1
201 4 15 -0.233353 1.7418285481470364 -18.11594790312392 -2.2835581527005515 0 0 1
1187 27 5 0.314181 7.812608924036267 -17.453705476163236 2.19995421051459 0 0 1
1186 27 5 0.314181 8.331944952706394 -19.014018817801762 2.5946823852627445 0 0 1
1185 27 5 0.314181 6.6791344732685936 -18.495682929056848 2.8531728099814218 0 0 1
1184 27 4 0.222004 9.245833373706134 -17.36977896366563 4.113553040976323 0 0 1
205 4 4 0.222004 1.5106482806964707 -19.010860952986288 -1.6588209041182322 0 0 1
200 4 14 -0.5578880000000001 1.0416197123250563 -16.840045813486732 -1.85136138365862 0 0 1
202 4 2 0.230579 -0.03310247123529311 -16.98914850350418 -1.9568172509268045 0 0 1
340 7 2 0.230579 -0.16258121589741686 -16.964468939827082 3.5201796331676163 0 0 1
66 1 16 -0.341435 1.3531822103318263 -18.46998048899477 15.459344732340854 0 0 0
67 1 4 0.222004 1.6654736723804535 -18.87906723972743 17.689128349433645 0 0 0
1322 30 4 0.222004 8.673124425864602 -18.33011725644239 10.318579254452334 0 0 1
911 21 5 0.314181 7.664792322141566 -17.899256023025927 14.624878427647621 0 0 0
69 1 5 0.314181 1.5249754647781906 -17.720648057645715 14.769097219449403 0 0 0
210 4 6 -1 -1.7382904291581511 -18.028079508114736 19.834552292385126 0 0 0
1317 30 15 -0.233353 7.655397180991029 -18.271700422110758 10.074223541185965 0 0 1
477 10 15 -0.233353 2.0448105925046582 -18.131839798847157 9.923324610811996 0 0 1
1048 24 5 0.314181 7.8259088042803615 -17.527548086479836 21.326215927837854 0 0 0
481 10 4 0.222004 1.8703512495796837 -18.83462566298104 10.69097883280054 0 0 1
63 1 15 -0.233353 1.798503350860478 -18.084353935993043 16.885509592211967 0 0 0
72 1 6 -1 -1.4034774426554009 -17.80640078030223 13.227514821794616 0 0 0
207 4 5 0.314181 1.9604263816536147 -19.158493276549482 21.1992388705958 0 0 0
482 10 4 0.222004 3.03681411502851 -18.153745562255132 9.64248566374658 0 0 1
1047 24 5 0.314181 8.709381647285007 -18.87079518474858 21.732480945109874 0 0 0
68 1 4 0.222004 2.8815566063598417 -18.02517888410265 16.839918715497753 0 0 0
1321 30 4 0.222004 7.033380591487986 -19.096155305470948 10.498212573674689 0 0 1
909 21 5 0.314181 6.639358385986985 -18.94491969706022 15.26525603305616 0 0 0
1044 24 16 -0.341435 7.899172874872988 -18.317191614492625 22.018484241030322 0 0 0
208 4 5 0.314181 1.7271671140606437 -17.510665235746647 21.144068136812788 0 0 0
1050 24 6 -1 4.696574737075887 -17.931306789138837 20.016804793309674 0 0 0
907 21 4 0.222004 7.160609581196927 -18.413096256591157 17.548791877392848 0 0 0
908 21 4 0.222004 8.56991717506241 -17.529143159853838 17.04842568881854 0 0 0
906 21 16 -0.341435 7.521207829493919 -18.5160582647802 15.387440832592663 0 0 0
912 21 6 -1 4.356128002675186 -18.120028779093698 13.349734916735434 0 0 0
903 21 15 -0.233353 7.574010462159475 -17.760305233880008 16.77964227272688 0 0 0
1049 24 5 0.314181 7.0354012262989185 -18.880653533808548 21.881480983151107 0 0 0
70 1 5 0.314181 0.39055287942238887 -18.818899388406297 15.227463434724148 0 0 0
910 21 5 0.314181 8.232884689988554 -19.239853765106897 15.343284294949546 0 0 0
204 4 16 -0.341435 1.4864252678240688 -18.36374085010643 21.625701789434274 0 0 0
209 4 5 0.314181 0.5143572945675053 -18.496931130532502 21.57068446843634 0 0 0
71 1 5 0.314181 2.035473192702795 -19.106332906517085 15.015251766255695 0 0 0
1316 30 14 -0.5578880000000001 7.221974404415465 -16.85691715581017 10.661117752445733 0 0 1
476 10 14 -0.5578880000000001 1.463581801482609 -16.797614407555272 10.5108933597622 0 0 1
1319 30 2 0.230579 7.546389507702737 -16.88555918387465 11.66196537294771 0 0 1
2835 67 13 0.084323 -1.3608789344999912 -10.608509892403884 -0.13028816413004027 1 0 1
2846 67 1 0.149793 -1.7388071963871063 -8.846994521884048 2.535267897254117 1 0 1
332 7 10 -0.244945 0.37031247068873063 -14.68214914988733 2.077622386298008 0 0 1
2973 70 13 0.084323 -0.735695009054815 -10.976294352215922 6.824719233338811 1 0 1
466 10 11 0.152064 3.3046951131849847 -13.45189693413869 8.474178934261712 0 0 1
2963 70 13 0.084323 -0.14339214763025973 -9.758970652907697 6.180955676234919 1 0 1
2847 67 1 0.149793 -0.1273478717904648 -8.847981354694362 1.565156198897373 1 0 1
2837 67 12 -0.332167 -2.125343369637613 -11.555437108375264 2.0793917355135614 1 0 1
2962 70 7 0.206307 -0.893903634995897 -8.661118385689967 5.673872893696323 1 0 1
2975 70 12 -0.332167 -1.3676971809286564 -13.30438154890815 6.805503881833916 1 0 1
333 7 10 -0.244945 0.9093271726298426 -13.621437488542504 1.320752676516628 0 0 1
2985 70 1 0.149793 1.1041055430753655 -12.186352294674027 4.931246954709176 1 0 1
2982 70 9 -0.503842 0.03496992907328436 -12.524523964685043 4.901471621479379 1 0 1
322 7 3 0.170391 1.5908500732940112 -10.603199837025604 0.8903289481320722 0 0 1
2825 67 13 0.084323 -0.6831058524525473 -9.564424264775722 -0.929339946888658 1 0 1
328 7 11 0.152064 2.3366797050538684 -13.25947941504289 1.3467124895640674 0 0 1
467 10 10 -0.244945 2.2104829732906914 -14.163431197407705 7.931955277907394 0 0 1
2979 70 3 0.170391 -1.4502320502572343 -14.212372301030758 6.22784621417408 1 0 1
2978 70 10 -0.244945 -1.3608631577862291 -10.82848479781642 8.023586355929677 1 0 1
2844 67 9 -0.503842 -0.8826424464576118 -9.468983995839135 2.1081750426746475 1 0 1
334 7 3 0.170391 0.2455552876749391 -13.107816998656428 0.6031592491793404 0 0 1
2974 70 7 0.206307 -0.6609464070526176 -12.26613366423798 6.264160192644718 1 0 1
2965 70 10 -0.244945 1.2439199555279752 -9.701661018178449 5.993960630828441 1 0 1
2983 70 1 0.149793 -0.4479164527378799 -12.078669718105298 4.02126482003268 1 0 1
2824 67 7 0.206307 0.18438271529844655 -9.902206710697234 -2.0269291131781575 1 0 1
2836 67 7 0.206307 -1.4394518968434384 -10.57902263547308 1.3229906081969547 1 0 1
474 10 3 0.170391 1.8299272425003104 -13.861041072007167 6.942431971693745 0 0 1
2984 70 1 0.149793 0.04479081085447266 -13.561851236954606 4.609112065921242 1 0 1
2968 70 3 0.170391 1.8358296431410353 -10.505480683069955 6.38862938984555 1 0 1
331 7 8 0.353774 1.295954898384117 -15.421144826143436 2.899321217544173 0 0 1
2976 70 11 0.152064 -2.0866770213654733 -13.13836531466847 8.029363983096877 1 0 1
330 7 10 -0.244945 2.6964361958311116 -15.092253930054111 2.9324244971125872 0 0 1
335 7 3 0.170391 -0.6908227620974996 -14.889433392883276 2.070817801000168 0 0 1
319 7 10 -0.244945 2.5123950247549574 -10.97036402858578 0.36446978259225554 0 0 1
323 7 3 0.170391 2.9298276682680338 -8.996224835925817 -0.36392414036495624 0 0 1
318 7 11 0.152064 2.9698449524286428 -12.349996117823721 0.38813047777971293 0 0 1
1176 27 3 0.170391 7.205665385430661 -13.463877201981614 0.6458025438701116 0 0 1
1170 27 10 -0.244945 7.2534994768185435 -14.684465252417064 2.4696077366218847 0 0 1
1177 27 3 0.170391 6.420788663484403 -15.254678549256866 2.159975446977208 0 0 1
451 10 1 0.149793 3.8584229316013787 -10.547038024707197 4.041932373349499 0 0 1
453 10 13 0.084323 5.328873490194111 -10.441769341913288 6.1850057930448745 0 0 1
315 7 13 0.084323 4.464567970867308 -10.300309928062646 -1.0554674303190479 0 0 1
455 10 12 -0.332167 4.710014682780058 -12.713616364223315 6.58825414155326 0 0 1
465 10 1 0.149793 7.023968941468002 -12.954592709312738 4.8338069924366724 0 0 1
321 7 3 0.170391 4.460967627540006 -13.704677543366843 -0.30884380092706926 0 0 1
324 7 9 -0.503842 5.872112710101403 -12.338059049053664 -1.923989802860437 0 0 1
316 7 7 0.206307 4.768159844176915 -11.72435974246015 -1.1606742969168091 0 0 1
463 10 1 0.149793 6.563574203796388 -11.59332932710156 3.8701566847339035 0 0 1
449 10 9 -0.503842 4.446416482673291 -9.78052770828149 3.3715273807274526 0 0 1
317 7 12 -0.332167 4.073209556091494 -12.683852676505884 -0.37038710866823366 0 0 1
462 10 9 -0.503842 6.151840263544439 -12.31322346523586 4.586384902307302 0 0 1
442 10 7 0.206307 5.57936083291788 -9.031350902802195 4.047386747625842 0 0 1
305 7 13 0.084323 5.36410638232871 -9.244461570336835 -1.7701973177683765 0 0 1
1307 30 10 -0.244945 7.560297088075391 -13.985169480138591 8.158556730445719 0 0 1
443 10 13 0.084323 5.93420154663974 -9.367379416679396 5.3514948922914725 0 0 1
458 10 10 -0.244945 4.576169590957119 -10.036951459919061 7.32669922369906 0 0 1
1162 27 3 0.170391 7.885032939773459 -11.425004385201605 0.15026127792430785 0 0 1
457 10 10 -0.244945 3.917654365907863 -10.996311828679536 8.103109064268521 0 0 1
454 10 7 0.206307 5.379018687649592 -11.802083569373039 5.801641156677196 0 0 1
456 10 11 0.152064 3.9991386920638274 -12.390311296908813 7.7532643816844775 0 0 1
1300 30 3 0.170391 8.213272073627678 -11.049970598343384 7.917736578021623 0 0 1
1171 27 8 0.353774 7.973961045293201 -15.165208458190008 3.552964650848312 0 0 1
1314 30 3 0.170391 7.006152135691556 -13.52935474506509 7.359015025914928 0 0 1
459 10 3 0.170391 4.711141586187032 -13.75743228800594 6.2874718957427085 0 0 1
450 10 1 0.149793 3.8255893970236023 -9.035728713952789 2.875347415174942 0 0 1
461 10 3 0.170391 4.509058856765947 -8.952156085236018 7.61247329812805 0 0 1
464 10 1 0.149793 5.459819227541745 -12.920819005454831 3.9968175676265156 0 0 1
336 7 3 0.170391 4.252343736170668 -13.857047373901061 2.0750442201825954 0 0 1
1169 27 10 -0.244945 7.772810833697174 -13.672840407193002 1.565583582893466 0 0 1
452 10 1 0.149793 4.846159293935028 -10.37728121428964 2.519515217648781 0 0 1
320 7 10 -0.244945 3.287630185422297 -10.029382610572318 -0.35725410662001766 0 0 1
329 7 10 -0.244945 3.2044603328710317 -14.071288308302941 2.0842641918069993 0 0 1
2845 67 1 0.149793 -0.36997042227674076 -9.854758184729175 3.0075736581266246 1 0 1
337 7 3 0.170391 3.4052401270912807 -15.649470826295541 3.576039543188724 0 0 1
2981 70 3 0.170391 -1.4263199255700638 -9.828440035015653 8.455012588243699 1 0 1
2977 70 10 -0.244945 -1.9561345368225245 -11.887602799173981 8.698860753429212 1 0 1
445 10 10 -0.244945 6.906697474050017 -8.513140510722915 6.01413985799299 0 0 1
1306 30 11 0.152064 8.917067098060823 -13.670248246716909 8.306141282805921 0 0 1
2854 67 3 0.170391 -1.8694517658499314 -14.008716339119632 3.655187045676412 1 0 1
310 7 3 0.170391 6.122017322939767 -8.59766281853441 0.22691157610940133 0 0 1
307 7 10 -0.244945 6.116134257933653 -8.439585128523651 -0.8697198139176349 0 0 1
2964 70 10 -0.244945 1.8781742461634356 -8.591217146412632 5.328849537667404 1 0 1
1159 27 10 -0.244945 9.018497736482422 -11.31006141520185 0.12904236209575837 0 0 1
460 10 3 0.170391 3.341513221133326 -10.703363203380192 8.976649643717623 0 0 1
2831 67 9 -0.503842 0.6182380671228854 -11.27034999003459 -2.3864332215342 1 0 1
475 10 3 0.170391 0.7886436587824578 -15.844543238981474 8.097159560046713 0 0 1
2969 70 9 -0.503842 -2.3473220510777355 -8.588440295864004 5.922667702385604 1 0 1
468 10 10 -0.244945 1.5433614625566836 -15.19005250833565 8.594026611406129 0 0 1
2840 67 10 -0.244945 -1.9983636866490961 -11.68900931659501 -0.7467268248471672 1 0 1
302 7 11 0.152064 7.1249090241315605 -7.262753187813352 -2.7854611772902644 0 0 1
325 7 1 0.149793 6.249297372516415 -13.394378316678955 -1.6402159606437756 0 0 1
2971 70 1 0.149793 -2.6951111421753673 -9.2486524011203 6.746219681387568 1 0 1
326 7 1 0.149793 6.806956341460011 -11.701627657961701 -2.036391319226806 0 0 1
197 4 3 0.170391 3.341238452745991 -15.49110357605987 -1.6367518689493006 0 0 1
2841 67 3 0.170391 -2.3388725189207937 -11.465890405287494 3.130796012442505 1 0 1
448 10 3 0.170391 7.150423266648934 -8.671730362441574 7.107043388891215 0 0 1
1315 30 3 0.170391 6.065581960223581 -15.508051159081665 8.739383615992711 0 0 1
1308 30 10 -0.244945 7.040194054928788 -15.077966548370197 8.93798951629572 0 0 1
2966 70 3 0.170391 2.962160488627449 -8.532263385867186 5.242164777745416 1 0 1
1297 30 10 -0.244945 9.125734772720623 -11.320988227920573 7.436045609043545 0 0 1
1172 27 10 -0.244945 9.23077217758821 -14.626515272857239 3.8022105969563125 0 0 1
33 1 3 0.170391 8.292798863296342 -9.3612037082962 9.077496691765672 0 0 0
1163 27 3 0.170391 9.025051563217236 -9.70884894878806 -1.3245750668926513 0 0 1
1692 41 4 0.222004 -2.684083769706836 -1.2349178681709378 6.459891486270906 1 0 0
1043 24 2 0.230579 7.520640178987991 -16.25116014940532 -0.7503032267931877 0 0 1
2823 67 12 -0.332167 0.7677602073239472 -8.855930380037641 -2.75659315765431 1 0 1
2103 50 5 0.314181 -2.5741004079035887 -0.4639643174389962 1.8129943640874264 1 0 1
2834 67 1 0.149793 0.34736378485866587 -12.058029100880491 -1.7008175821201954 1 0 1
2827 67 10 -0.244945 -1.0692948447439217 -8.222510719886246 -0.7614369844255224 1 0 1
2838 67 11 0.152064 -2.682906248506865 -12.652919063507872 1.4327003108785163 1 0 1
1168 27 11 0.152064 9.043828378353822 -13.095402738795793 1.8825862586768907 0 0 1
1180 27 2 0.230579 6.339192630815608 -16.391129270086044 4.2948490811991045 0 0 1
1178 27 14 -0.5578880000000001 7.4761557019979845 -16.27636755394955 4.449358710601797 0 0 1
194 4 10 -0.244945 2.7361875399553344 -15.130078073654852 -2.4576022219961153 0 0 1
203 4 2 0.230579 1.168351761142173 -16.625352083728522 -0.7921771394924076 0 0 1
428 10 8 0.353774 9.43873201472476 -4.510833070648719 1.4912502961830667 0 0 1
2716 64 3 0.170391 -1.4571600686240975 -14.091895245369775 -2.937993951240188 1 0 1
2110 50 2 0.230579 -2.6822923137130763 -3.8169983636251983 -0.5577172424586757 1 0 1
1033 24 8 0.353774 8.063529620362088 -15.311120370828345 -2.5961329677464313 0 0 1
1034 24 10 -0.244945 8.821640189920103 -14.331638860893591 -1.9318934652631636 0 0 1
1702 41 3 0.170391 -2.0821459695165894 -4.304095681688635 9.563129047072046 1 0 0
2830 67 3 0.170391 -1.8248772049486826 -7.948006955517079 -0.0065022273331034625 1 0 1
2970 70 1 0.149793 -2.65144508137134 -7.481062625714494 6.118874519671827 1 0 1
1296 30 11 0.152064 9.512966622168346 -12.673379789659485 7.362870679657877 0 0 1
341 7 2 0.230579 0.8193685801435125 -16.398133557902025 4.825892195817711 0 0 1
1181 27 2 0.230579 7.615348143533291 -16.026023202545787 5.508449763848537 0 0 1
2544 61 3 0.170391 -0.3701674878460668 -6.50784863447106 7.924414659706162 1 0 0
16 1 2 0.230579 9.477499245184505 -3.5632774196172385 5.6602510658002565 0 0 0
441 10 12 -0.332167 6.176012549055371 -7.989237143231966 3.3990751872731715 0 0 1
2818 67 3 0.170391 4.139959839349085 -4.672177857427896 -2.741732713682761 1 0 1
1686 41 16 -0.341435 -2.670490836301152 -1.2057914581957112 8.460666452774802 1 0 0
1290 30 1 0.149793 9.50935887641125 -9.068659484340042 2.2534962355656165 0 0 1
2553 61 3 0.170391 -1.7719386254495453 -7.204862663767474 9.487324325272741 1 0 0
294 7 10 -0.244945 9.339723803991166 -5.989694602371119 -2.995314340646537 0 0 1
8 1 5 0.314181 9.421636081687673 -0.5246172737601772 8.603352728249323 0 0 0
338 7 14 -0.5578880000000001 0.8927533812470276 -16.6468297173884 3.7293986494193727 0 0 1
1042 24 2 0.230579 6.454385117505428 -16.742675316807688 -1.966494263275371 0 0 1
12 1 4 0.222004 9.319606127974803 -1.3884031832832304 6.3316636304019065 0 0 0
417 9 6 -1 6.276042618800917 -1.9509230443706733 -1.817195557100315 0 0 1
2102 50 5 0.314181 -2.558416885449253 -1.741087415042506 2.8981871363463774 1 0 1
2956 70 3 0.170391 1.3377256143038434 -4.69022615625226 0.9723626195155886 1 0 1
2541 61 10 -0.244945 2.9683219798239917 -5.078475744851907 9.38676429859154 1 0 0
10 1 5 0.314181 9.084209842744432 -1.959255367147491 9.25928625810701 0 0 0
2531 61 14 -0.5578880000000001 2.9957130899018054 -3.4735573933278356 7.402831524351669 1 0 0
1037 24 3 0.170391 9.064865024611603 -14.449789957595888 -0.8386219370859366 0 0 1
2937 69 6 -1 0.09818131251164636 -1.6523477449715664 -1.8025537003464247 1 0 1
1690 41 5 0.314181 -1.5610609821212018 -1.2578849171290314 8.55046728070972 1 0 0
2948 70 8 0.353774 3.0233098969442134 -4.68961623016104 2.0946073617384067 1 0 1
2534 61 8 0.353774 2.3238057656454405 -4.610906595202449 8.206160101064398 1 0 0
1696 41 2 0.230579 -2.5333278523942497 -3.525940617385457 6.06374304947487 1 0 0
438 10 3 0.170391 6.251160007390608 -5.739755165838531 1.8755145864327838 0 0 1
20 1 10 -0.244945 9.2176140388637 -6.762643587756002 8.620279559766379 0 0 0
2954 70 10 -0.244945 1.0945452809897802 -5.92043726655504 2.751559263438659 1 0 1
420 10 16 -0.341435 8.606835764567315 -1.5252048017633206 1.1065698090874059 0 0 1
2526 61 16 -0.341435 3.950405303774327 -1.2155717179689658 7.425645092143508 1 0 0
2960 70 11 0.152064 1.088329828973429 -7.589728511661798 4.7121110590637505 1 0 1
2961 70 12 -0.332167 -0.2672911870557143 -7.621747597759804 4.9218310184892236 1 0 1
308 7 3 0.170391 7.515537688600671 -6.806731899767988 -0.6452991939224457 0 0 1
2523 60 6 -1 0.16882080978905095 -1.9257927709208729 4.297857755253939 1 0 0
1691 41 14 -0.5578880000000001 -2.5305652902861473 -3.244153858731971 7.098061135938293 1 0 0
2953 70 11 0.152064 1.7040829156644577 -6.457806736559266 3.9221733124334883 1 0 1
432 10 10 -0.244945 7.380718100432134 -5.6696119277171775 2.0219296258348547 0 0 1
447 10 3 0.170391 5.947000267585993 -7.7812933016026005 2.328276372279484 0 0 1
2947 70 4 0.222004 2.879791648383903 -2.005122678515197 2.54790264445658 1 0 1
2527 61 15 -0.233353 2.9298566958625587 -2.1525232193369503 8.168152834571297 1 0 0
2532 61 4 0.222004 2.0217373919935384 -1.673532696518274 7.917567217002023 1 0 0
306 7 10 -0.244945 6.999533185506263 -7.413449369642685 -1.3464678091607925 0 0 1
193 4 8 0.353774 1.4394764570370897 -15.593468611128625 -2.588674002114203 0 0 1
2955 70 10 -0.244945 1.7289493843328454 -5.097824014057651 1.8849798242568108 1 0 1
434 10 10 -0.244945 9.425105989302903 -5.88091764263026 3.5016805920852088 0 0 1
24 1 3 0.170391 5.992774215383318 -5.459983052841563 8.812745364457086 0 0 0
2816 67 10 -0.244945 2.528596155963735 -6.111541782439479 -2.7192007879863334 1 0 1
2957 70 3 0.170391 4.626928082884432 -4.757171852670717 3.5104479259271546 1 0 1
2822 67 11 0.152064 0.4842615926521035 -7.488606725600673 -2.5502915746361956 1 0 1
2538 61 10 -0.244945 0.47773569637698654 -6.132485193729406 8.459369704664924 1 0 0
2826 67 10 -0.244945 -0.40490794431378524 -7.203171611754009 -1.52029818929448 1 0 1
437 10 3 0.170391 7.5140901513132 -4.355469189611751 0.3074142225675672 0 0 1
433 10 11 0.152064 7.999228452369494 -6.223335495360119 3.2047273135486805 0 0 1
422 10 5 0.314181 8.297068293903015 -1.5221756063854093 0.1120622335751317 0 0 1
2952 70 10 -0.244945 3.1028401830901533 -6.092025248037573 4.1102573449674695 1 0 1
2944 70 5 0.314181 4.431516957930168 -1.2737903179731798 0.4837394272704194 1 0 1
2942 70 5 0.314181 3.2662445838943683 -0.19373411622745482 0.9536999896398032 1 0 1
440 10 11 0.152064 7.202168573614617 -7.249454095847101 3.962294672691543 0 0 1
3 0 6 -1 6.185840024214369 -1.8517310264037534 4.194504767895913 0 0 0
2958 70 3 0.170391 3.592227995670773 -6.479602016617055 5.027057662421988 1 0 1
2828 67 3 0.170391 -0.6682363956330432 -6.133046587211758 -1.3354724535808236 1 0 1
2967 70 3 0.170391 -0.8669818100846755 -6.764831724732303 4.519819379690724 1 0 1
2945 70 14 -0.5578880000000001 3.612356649482871 -3.6463788201546268 1.160940645577599 1 0 1
2943 70 5 0.314181 3.131128124905284 -1.2472707853554545 -0.4068249277519837 1 0 1
424 10 5 0.314181 7.982009891842788 -2.143438986572852 1.608634111828426 0 0 1
18 1 10 -0.244945 7.1054993151458445 -5.533199139177441 8.539616263202939 0 0 0
7 1 15 -0.233353 9.091126901490775 -2.1228809484405 7.112935589551585 0 0 0
2536 61 2 0.230579 2.5342767040094074 -3.3605996821040183 6.443718466414799 1 0 0
2109 50 2 0.230579 -1.4931840696633525 -3.502543458320903 0.8563323097788063 1 0 1
2533 61 4 0.222004 3.113827396303153 -2.2490534022989928 9.316543186745092 1 0 0
2535 61 2 0.230579 3.9747142351265 -3.8347277887028275 7.162618190554607 1 0 0
2821 67 3 0.170391 2.876407420194208 -6.506515169587895 -1.7745663320455736 1 0 1
2528 61 5 0.314181 3.697634353893032 -0.17498587952103417 7.573259250532362 1 0 0
2941 70 15 -0.233353 2.878121359703993 -2.2856076135091037 1.4840894307943886 1 0 1
444 10 10 -0.244945 7.6383053159979255 -7.546972543726304 5.263292859094891 0 0 1
2959 70 3 0.170391 0.051169555998317275 -6.1184341050408495 2.520357889311189 1 0 1
2946 70 4 0.222004 1.7971273192963917 -2.3805969345445535 1.3914755822420797 1 0 1
2105 50 14 -0.5578880000000001 -2.606852339238506 -3.5855596037270634 0.6005114975614739 1 0 1
2537 61 10 -0.244945 1.2601790773221657 -5.289222626058191 7.612704137870128 1 0 0
2543 61 3 0.170391 0.7732648867210394 -4.981280096826199 6.636929107489212 1 0 0
2530 61 5 0.314181 4.922914787867598 -1.3681976027271676 7.8561218652410965 1 0 0
19 1 11 0.152064 7.862281246838972 -6.6100769416182565 9.012316135247948 0 0 0
2117 50 3 0.170391 -2.072436775786891 -4.516689648206533 3.0227396125222934 1 0 1
446 10 3 0.170391 8.408263858642416 -6.9775659503863485 5.771657032305115 0 0 1
17 1 10 -0.244945 7.713066545896904 -4.604537192592769 7.705540263912895 0 0 0
2529 61 5 0.314181 4.059868921917695 -1.3385476562507954 6.387810433311239 1 0 0
2951 70 10 -0.244945 3.7014273675365716 -5.233682753325402 3.2341918476275846 1 0 1
14 1 8 0.353774 9.052919172724192 -4.634764881456589 7.439875323810789 0 0 0
2100 50 16 -0.341435 -2.4127630865947935 -1.4425200067168384 1.9251125919316314 1 0 1
423 10 5 0.314181 8.51262524302595 -0.5104154021442247 1.4465662775550883 0 0 1
2950 70 2 0.230579 3.5543278884025615 -3.8188264327552397 0.04466997350705833 1 0 1
2949 70 2 0.230579 4.673815053412171 -3.4666968228799235 1.4314463991627713 1 0 1
2104 50 5 0.314181 -1.3897405953272903 -1.542245868518049 1.7156574087650844 1 0 1
13 1 4 0.222004 7.960623652033642 -2.0679046913049524 7.2268874652148085 0 0 0
2940 70 16 -0.341435 3.4396788473451667 -1.1921129927423404 0.5564960102798797 1 0 1
23 1 3 0.170391 7.087771256033758 -3.8531598519832433 7.250780288633651 0 0 0
431 10 10 -0.244945 8.08866018731935 -4.778745661307873 1.184698006489567 0 0 1
1695 41 2 0.230579 -1.41692972680204 -3.2558088292897507 7.3533794367586 1 0 0
1035 24 10 -0.244945 9.375032514103072 -13.261899508941417 -2.6618612762951126 0 0 1
2832 67 1 0.149793 1.703498324098048 -11.295041792127284 -2.4850616494944138 1 0 1
1040 24 14 -0.5578880000000001 7.470231082306989 -16.478517942065793 -1.8325333724448403 0 0 1
1291 30 1 0.149793 9.092664283172251 -9.630987967849824 3.9418732393926135 0 0 1
2839 67 10 -0.244945 -2.645476395971465 -12.736956081756096 0.060679116691415506 1 0 1
2717 64 3 0.170391 -2.377387023383756 -16.092213865983414 -1.8238064388171515 1 0 1
327 7 1 0.149793 5.540002709436459 -12.44289763162961 -2.9468538175851835 0 0 1
1301 30 3 0.170391 9.4721068679649 -9.338270305880682 6.509786473521388 0 0 1
2843 67 3 0.170391 -2.1551443276065996 -11.81232512173149 -1.8306404612882357 1 0 1
2715 64 10 -0.244945 -2.48297873383947 -14.32011394504524 -3.0645446409942356 1 0 1
182 4 10 -0.244945 3.0791017849997697 -10.856481894929429 18.56710211028776 0 0 0
2686 64 7 0.206307 -1.2714504919289944 -9.194426277708015 16.95376950131403 1 0 0
2699 64 12 -0.332167 -1.8343306905393277 -12.92607594665492 19.52859482709298 1 0 0
2568 61 9 -0.503842 -0.20020621501538702 -12.363764845210738 11.580214531135972 1 0 0
2561 61 12 -0.332167 -2.018491628802286 -13.10226531428914 13.07839987905007 1 0 0
2548 61 7 0.206307 -1.9771422504192422 -8.777864395791942 10.885194704857632 1 0 0
53 1 10 -0.244945 1.9459831361217765 -14.010700342582448 14.603220471872973 0 0 0
176 4 1 0.149793 3.0529763249019948 -9.299362128198348 14.768190828594589 0 0 0
185 4 3 0.170391 2.603554039180884 -9.915868950338739 18.333981612779326 0 0 0
181 4 10 -0.244945 2.4437702361193603 -11.757141716983353 19.485703575438922 0 0 0
2708 64 1 0.149793 -0.9551230640689715 -12.553666777188802 16.785774721850796 1 0 0
174 4 1 0.149793 2.2163078405175827 -9.233555266304682 16.307344765668294 0 0 0
2565 61 3 0.170391 -1.674384849081933 -14.082957544460468 12.961120236546211 1 0 0
2571 61 1 0.149793 0.5116162988597525 -11.54781917190196 11.476116768633926 1 0 0
2569 61 1 0.149793 -0.48790870557373306 -12.763054191524137 10.591095319584335 1 0 0
2706 64 9 -0.503842 -0.29860603008482245 -12.410689084855088 17.63645893151019 1 0 0
2709 64 1 0.149793 0.20875373999150879 -13.388908308701447 17.723010656203463 1 0 0
2707 64 1 0.149793 0.3890298636477224 -11.63486181924291 17.183075963571014 1 0 0
184 4 3 0.170391 1.4478326378866602 -11.618240886053682 19.889512243126767 0 0 0
55 1 8 0.353774 2.0189358144591023 -15.562849986360154 16.445228616643394 0 0 0
2549 61 13 0.084323 -1.3389165599155042 -9.532566116004467 11.925861167051778 1 0 0
2559 61 13 0.084323 -1.9870187151745258 -10.740883271446323 12.587666088706385 1 0 0
2687 64 13 0.084323 -0.777154485683628 -9.43638597294654 18.288971945010868 1 0 0
173 4 9 -0.503842 3.2078627640543176 -9.583353750379537 15.869152517969962 0 0 0
175 4 1 0.149793 3.1479181056592895 -10.7057657115939 15.813022545551005 0 0 0
198 4 3 0.170391 0.589082057414843 -14.14432979015031 19.92118546921695 0 0 0
60 1 3 0.170391 1.3463125607212558 -13.662918485356352 13.835811318249576 0 0 0
2698 64 7 0.206307 -1.1548377361370838 -11.886044859452758 18.814286289073696 1 0 0
191 4 10 -0.244945 1.160660304000027 -14.36555767886321 20.791009271646956 0 0 0
2697 64 13 0.084323 -1.3119262762060917 -10.531484602717722 19.169392897741126 1 0 0
54 1 10 -0.244945 1.3684468317462877 -14.974821159902541 15.388632525727843 0 0 0
2703 64 3 0.170391 -1.7397014907877508 -13.924264212638203 19.188447063239874 1 0 0
190 4 11 0.152064 2.500489331561089 -13.912140690976749 20.84533642742346 0 0 0
2560 61 7 0.206307 -1.4580238261252778 -12.028070228639715 12.40374835165353 1 0 0
46 1 3 0.170391 2.601045462000998 -12.48819819810908 12.529732324570947 0 0 0
43 1 10 -0.244945 3.4456549817748656 -12.001994133996575 12.916015815715516 0 0 0
473 10 3 0.170391 3.467414768552745 -15.050497957664783 11.535403503275234 0 0 1
180 4 11 0.152064 3.1208216968473033 -12.91292725677231 19.90572373244646 0 0 0