LAMMPS data file via write_data, version 23 Jun 2022, timestep = 2050000

3360 atoms
17 atom types
3312 bonds
19 bond types
5760 angles
34 angle types
8064 dihedrals
47 dihedral types

-2.848001496419155 22.04800149641987 xlo xhi
-67.9519059410852 204.92248669173608 ylo yhi
-3.1220355056352656 22.322035505637515 zlo zhi

Masses

1 1.008
2 1.008
3 1.008
4 1.008
5 1.008
6 126.9
7 12.01
8 12.01
9 12.01
10 12.01
11 12.01
12 12.01
13 12.01
14 12.01
15 12.01
16 14.01
17 207.2

Bond Coeffs # harmonic

1 330.6 1.0969
2 330.6 1.0969
3 345.8 1.086
4 345.8 1.086
5 338.7 1.091
6 373.2 1.0304
7 321 1.5156
8 461.1 1.3984
9 450.2 1.4058
10 461.1 1.3984
11 321 1.5156
12 461.1 1.3984
13 450.2 1.4058
14 450.2 1.4058
15 351.4 1.4854
16 450.2 1.4058
17 351.4 1.4854
18 300.9 1.5375
19 283.3 1.511

Angle Coeffs # harmonic

1 39.4 107.58
2 46.8 110.47
3 39.4 107.58
4 46.8 110.47
5 46.34 109.8
6 48.18 119.88
7 48.18 119.88
8 47.98 119.86
9 47.98 119.86
10 48.18 119.88
11 47.98 119.86
12 39.22 109.75
13 46.2 110.56
14 48.65 108.01
15 40.58 108.3
16 45.85 110.11
17 66.26 120.69
18 66.72 118.38
19 64.05 121.11
20 66.62 120.02
21 63.15 112.07
22 63.53 120.77
23 63.43 120.63
24 66.62 120.02
25 63.53 120.77
26 66.26 120.69
27 66.26 120.69
28 66.72 118.38
29 64.05 121.11
30 66.72 118.38
31 64.05 121.11
32 64.05 121.11
33 66.26 120.69
34 64.18 114.21

Dihedral Coeffs # opls

1 0 0 0 0
2 0 0 0 0
3 0 0 0 0
4 0 0 0.311111 0
5 0 0 0.311111 0
6 0 7.25 0 0
7 0 7.25 0 0
8 0 7.25 0 0
9 0 7.25 0 0
10 0 7.25 0 0
11 0 7.25 0 0
12 0 7.25 0 0
13 0 7.25 0 0
14 0 7.25 0 0
15 0 7.25 0 0
16 0 7.25 0 0
17 0 7.25 0 0
18 0 7.25 0 0
19 0 7.25 0 0
20 0 7.25 0 0
21 0 0 0.311111 0
22 0 0 0.311111 0
23 0 0 0.311111 0
24 0 7.25 0 0
25 0 7.25 0 0
26 0 7.25 0 0
27 0 2 0 0
28 0 2 0 0
29 0 7.25 0 0
30 0 0 0.311111 0
31 0 7.25 0 0
32 0 7.25 0 0
33 0 7.25 0 0
34 0 7.25 0 0
35 0 0 0 0
36 0 7.25 0 0
37 0 7.25 0 0
38 0 7.25 0 0
39 0 7.25 0 0
40 0 7.25 0 0
41 0 2 0 0
42 0 2 0 0
43 0 7.25 0 0
44 0 2 0 0
45 0 7.25 0 0
46 0 7.25 0 0
47 0 7.25 0 0

Atoms # full

343 7 4 0.222004 1.025034723976749 -19.141122822767407 4.1694483793654324 0 0 1
344 7 4 0.222004 2.551661569547455 -18.235515340910467 4.165822094021144 0 0 1
339 7 15 -0.233353 1.5896677267603105 -18.245574057938377 3.660936228934941 0 0 1
345 7 5 0.314181 2.504621748070466 -19.125207347304283 2.0241611392650944 0 0 1
202 4 2 0.230579 0.046069321688881004 -17.218808049622623 -2.1554290978231756 0 0 1
486 10 6 -1 -1.559648087223813 -18.218910990091885 6.975689627244169 0 0 1
483 10 5 0.314181 1.7075546126802492 -17.58686147229578 8.160352968695932 0 0 1
201 4 15 -0.233353 1.866776936394976 -18.433528318856027 -2.379642992709021 0 0 1
485 10 5 0.314181 2.0726382790231956 -19.046699463639897 8.416788184339095 0 0 1
484 10 5 0.314181 0.5073586476086245 -18.681847249958075 8.66294216368101 0 0 1
205 4 4 0.222004 1.481403816338275 -19.315935219470184 -1.8759783083221953 0 0 1
346 7 5 0.314181 2.0905535608137895 -17.56218480838237 1.860092047243373 0 0 1
348 7 6 -1 -1.7353810220486285 -18.01791607706324 0.6106532619599944 0 0 1
342 7 16 -0.341435 1.671602125553449 -18.455540532405976 2.188596205612256 0 0 1
480 10 16 -0.341435 1.4696313225511592 -18.33728502280976 8.796828446883666 0 0 1
347 7 5 0.314181 0.765142817783492 -18.692357214419474 1.679265879694416 0 0 1
200 4 14 -0.5578880000000001 1.1152143869472817 -17.04769711399085 -2.06959635236233 0 0 1
206 4 4 0.222004 2.914818189302346 -18.445985710369357 -2.159699078351434 0 0 1
340 7 2 0.230579 -0.12358851618759692 -16.84515066279483 3.6341188258467416 0 0 1
338 7 14 -0.5578880000000001 0.9249687595211946 -16.852198681982088 3.878630536440375 0 0 1
66 1 16 -0.341435 1.3540025106470446 -18.11270024605566 15.567479069742385 0 0 0
208 4 5 0.314181 2.43647933269019 -19.43944219224946 21.292728208036763 0 0 0
69 1 5 0.314181 1.5663198641642224 -17.279301429091326 15.041242150681144 0 0 0
71 1 5 0.314181 1.9275082695496777 -18.862902456365 15.02798209952187 0 0 0
72 1 6 -1 -1.4851224787982065 -16.97244916464465 13.523091107436315 0 0 0
210 4 6 -1 -1.3544023704180574 -18.536817995449454 19.573328662385553 0 0 0
204 4 16 -0.341435 1.7488272613609115 -18.773816188960886 21.618066791154856 0 0 0
477 10 15 -0.233353 1.902667597960653 -17.997876844793154 10.221457513177585 0 0 1
481 10 4 0.222004 1.5626654277047938 -18.852852668110366 10.845484847503794 0 0 1
207 4 5 0.314181 0.7937211940942124 -19.04875967621362 21.329674660420032 0 0 0
63 1 15 -0.233353 1.8863406427044613 -17.962336723608118 16.972608890204885 0 0 0
209 4 5 0.314181 1.9642055877368896 -17.894418666598114 21.04639699246496 0 0 0
67 1 4 0.222004 1.4549556626858826 -18.85201621277117 17.599699894742493 0 0 0
70 1 5 0.314181 0.35721991791029817 -18.251628824265822 15.567322400851413 0 0 0
482 10 4 0.222004 3.0160504049233032 -17.90559120390961 10.31525233003521 0 0 1
68 1 4 0.222004 2.972181701822192 -18.100863011968258 16.875045424139948 0 0 0
2835 67 13 0.084323 -0.9259782525226183 -10.965683354496782 -0.38237455371532725 1 0 1
2846 67 1 0.149793 -1.0920575290468229 -9.029133325939732 1.974196031804018 1 0 1
2831 67 9 -0.503842 1.0567336422348843 -11.55827913131332 -2.6462866147899935 1 0 1
332 7 10 -0.244945 0.8184044409058471 -15.083974619973432 2.1258683948813473 0 0 1
2823 67 12 -0.332167 1.1145196154946406 -9.134577977567979 -3.0171011841829194 1 0 1
2986 70 11 0.152064 -2.7754270551005504 -13.978040512920813 8.626196077923105 1 0 1
2841 67 3 0.170391 -1.7616717309774965 -11.638193128757983 2.8320921087136504 1 0 1
2973 70 13 0.084323 -0.5214844463493162 -10.788015007960858 6.6625769187090045 1 0 1
466 10 11 0.152064 3.207671925876251 -13.490926216728923 8.426074255454647 0 0 1
203 4 2 0.230579 1.2659658648248144 -16.761216134168528 -1.0480463656596595 0 0 1
2963 70 13 0.084323 0.06399377313426635 -9.693415253308821 5.826191229146819 1 0 1
2847 67 1 0.149793 0.4718748638081456 -9.315313126773084 1.1354188015469406 1 0 1
2964 70 10 -0.244945 2.0881936324410435 -8.504715914498078 5.134098588277113 1 0 1
2837 67 12 -0.332167 -1.5749183678596945 -11.780728635772178 1.7762291506393908 1 0 1
2962 70 7 0.206307 -0.7796610596615614 -8.689369501175676 5.266528996064047 1 0 1
2975 70 12 -0.332167 -1.2209734624714128 -13.132720643523875 6.801588662681105 1 0 1
333 7 10 -0.244945 1.4081737038394633 -14.018905122176513 1.390851617072932 0 0 1
2985 70 1 0.149793 1.399164695299349 -12.314035107266392 5.160655435872416 1 0 1
2982 70 9 -0.503842 0.3427459408858584 -12.549273540828445 4.9176386033478 1 0 1
322 7 3 0.170391 1.9266615943897896 -11.197963810787513 0.9112020753900977 0 0 1
2825 67 13 0.084323 -0.3463291689845356 -9.906936537433502 -1.2841040967374124 1 0 1
328 7 11 0.152064 2.743777871582076 -13.624480634513972 1.5559649216558484 0 0 1
467 10 10 -0.244945 2.1115602775999363 -14.244778589966387 7.858812902294036 0 0 1
2979 70 3 0.170391 -1.1631247621617204 -14.152564519955561 6.431385977445232 1 0 1
2969 70 9 -0.503842 -2.293824592021703 -8.595098048760576 5.593455841044425 1 0 1
2978 70 10 -0.244945 -1.196735934935743 -10.59478469952002 7.944918057841315 1 0 1
2844 67 9 -0.503842 -0.27525422119177145 -9.722476625307827 1.770669615930298 1 0 1
334 7 3 0.170391 0.8101296796144939 -13.657030767833078 0.5448271026645483 0 0 1
2970 70 1 0.149793 -2.769688804065831 -9.590704466515533 5.470622791340452 1 0 1
2974 70 7 0.206307 -0.45602933555813907 -12.151169655499878 6.135708302115279 1 0 1
193 4 8 0.353774 1.716165968316877 -15.985123737094057 -2.9798069397154157 0 0 1
2965 70 10 -0.244945 1.4623128641737009 -9.559033364445142 5.893823170723696 1 0 1
2981 70 3 0.170391 -1.178379449206321 -9.55957727442857 8.384998769743389 1 0 1
2983 70 1 0.149793 -0.04220908532275924 -11.938364235769377 4.157136549034762 1 0 1
194 4 10 -0.244945 2.9411626077629536 -15.403500221203608 -2.7416029141113873 0 0 1
2843 67 3 0.170391 -1.5816774509618414 -12.155737166436957 -2.1034695931975134 1 0 1
2824 67 7 0.206307 0.5882587322449897 -10.190959796068881 -2.3121344663012926 1 0 1
2840 67 10 -0.244945 -1.5936912108160104 -12.091071141668849 -0.9745172641335289 1 0 1
2836 67 7 0.206307 -0.9236899242140555 -10.820306019678426 1.0296329177202426 1 0 1
2717 64 3 0.170391 -2.296183733986913 -16.355465982030253 -2.424629840987276 1 0 1
474 10 3 0.170391 1.8338569975965933 -14.106314135982345 6.77689096693874 0 0 1
2984 70 1 0.149793 0.18733187812811147 -13.578604782638209 4.6595698627083735 1 0 1
2968 70 3 0.170391 2.0541419992993704 -10.267355254917874 6.396852044444817 1 0 1
331 7 8 0.353774 1.536825742037626 -15.61796663047582 3.1716495616343665 0 0 1
2976 70 11 0.152064 -1.8793918213388445 -12.935876733980088 8.026431644958585 1 0 1
2832 67 1 0.149793 0.8513097937730452 -12.349125253933167 -1.906228363486155 1 0 1
2839 67 10 -0.244945 -2.262220757952637 -12.963672127142843 -0.13420092252877533 1 0 1
330 7 10 -0.244945 2.8312407690827652 -15.10006509660316 3.5382557739913096 0 0 1
2845 67 1 0.149793 0.20409953495136168 -10.090561126371696 2.7746648583727707 1 0 1
2977 70 10 -0.244945 -1.6625346321837116 -11.707161409094454 8.62389887492293 1 0 1
475 10 3 0.170391 0.5810974638849 -15.6572881651135 8.15149425479997 0 0 1
335 7 3 0.170391 -0.2559794273632354 -15.261634889867587 1.795024425423554 0 0 1
2854 67 3 0.170391 -1.6032622935491057 -14.252633755944444 3.708614130842424 1 0 1
468 10 10 -0.244945 1.4222857593841263 -15.171461639723603 8.648726313604758 0 0 1
319 7 10 -0.244945 2.866801117432671 -11.351888090754223 0.4565115541349383 0 0 1
2827 67 10 -0.244945 -0.7954868471932071 -8.549039835087484 -1.0822158465639202 1 0 1
2853 67 10 -0.244945 -2.533247711626912 -14.503673088809258 3.2385266181147125 1 0 1
2838 67 11 0.152064 -2.266015188577188 -12.877107565122174 1.2238831404549158 1 0 1
2966 70 3 0.170391 3.124887560071546 -8.424420971489752 5.021236763959403 1 0 1
2855 67 3 0.170391 -2.7464031420365917 -16.06195527488689 4.6898089254755115 1 0 1
323 7 3 0.170391 3.104516037814919 -9.357928590294527 -0.24340255199147287 0 0 1
341 7 2 0.230579 0.9835871660273594 -16.54186273645231 4.897671140551643 0 0 1
318 7 11 0.152064 3.3576306045392026 -12.668167207189882 0.5766357916475968 0 0 1
2842 67 3 0.170391 -2.809442344689396 -13.811951655885863 -0.6361897661041432 1 0 1
2833 67 1 0.149793 2.128142751387194 -11.673358025426289 -2.8605905297669914 1 0 1
182 4 10 -0.244945 2.9566850266665443 -10.678913167946462 18.741174024393445 0 0 0
2554 61 3 0.170391 0.29268422395413296 -9.29161185104703 13.220979079713304 1 0 0
2694 64 1 0.149793 -1.9768003035874075 -10.44537987601474 15.755276887481415 1 0 0
2686 64 7 0.206307 -1.2849829758423004 -8.802409271784597 16.826729641653504 1 0 0
2699 64 12 -0.332167 -1.5447475227832879 -12.61334132917878 19.345982296852803 1 0 0
2568 61 9 -0.503842 -0.3056696059359485 -12.191607293733178 12.167391403485464 1 0 0
2561 61 12 -0.332167 -2.099227019143596 -12.647383762500084 13.751935717685237 1 0 0
2716 64 3 0.170391 -1.205306648322991 -14.383006600901652 21.902581568228786 1 0 0
2548 61 7 0.206307 -1.9648691001988028 -8.76367708417078 10.807135782883314 1 0 0
53 1 10 -0.244945 1.880507122050902 -13.813112348158143 15.092648191385033 0 0 0
176 4 1 0.149793 3.290995204255451 -9.1574673396236 14.656310224188632 0 0 0
185 4 3 0.170391 2.462455773005884 -9.74643397206681 18.72227767713032 0 0 0
181 4 10 -0.244945 2.438769392164066 -11.684362782751677 19.560219875663975 0 0 0
2708 64 1 0.149793 0.5551628950670953 -10.97532712386539 17.24510423341039 1 0 0
2570 61 1 0.149793 0.5872586865750109 -11.551828275890188 12.363284359091192 1 0 0
62 1 14 -0.5578880000000001 1.50839627222259 -16.62611919573471 17.68055634112317 0 0 0
469 10 8 0.353774 1.8836337460171548 -15.47708117324585 9.968550631498276 0 0 1
174 4 1 0.149793 2.3056338240151244 -8.870728926268455 16.129449770511037 0 0 0
2565 61 3 0.170391 -1.514721407978195 -13.591953934955058 13.97277436541738 1 0 0
2571 61 1 0.149793 -0.4448341576223296 -12.21338071987526 11.062806766196642 1 0 0
478 10 2 0.230579 0.1434877416221947 -16.72054923298719 10.360190076254353 0 0 1
2569 61 1 0.149793 -0.023084954724600593 -13.182499261561652 12.466923075785079 1 0 0
2706 64 9 -0.503842 -0.14377487038879266 -11.794495022417081 17.382267645247573 1 0 0
2709 64 1 0.149793 -0.5162261252597706 -11.975225001177392 16.329108747280326 1 0 0
2707 64 1 0.149793 0.45309751238559715 -12.681142728648126 17.57426747380953 1 0 0
184 4 3 0.170391 1.3980528096774862 -11.602374750137542 19.928940440327644 0 0 0
476 10 14 -0.5578880000000001 1.1971734776826382 -16.663617855232317 10.640349776044612 0 0 1
55 1 8 0.353774 2.114327040088605 -15.440591966356997 16.97997847369743 0 0 0
2715 64 10 -0.244945 -2.262722883616155 -14.510529105044142 21.916581502714248 1 0 0
2549 61 13 0.084323 -1.4429412494261515 -9.372893047535946 11.932438813057225 1 0 0
2559 61 13 0.084323 -2.155333998356072 -10.449626243338969 12.737331301081426 1 0 0
2702 64 10 -0.244945 -1.9810435771518602 -9.98196304406472 20.17686626415995 1 0 0
2687 64 13 0.084323 -0.8036774291843871 -9.067525769517779 18.10876316561783 1 0 0
173 4 9 -0.503842 3.1727984956014814 -9.355293780819153 15.74021902423474 0 0 0
175 4 1 0.149793 3.045499332021015 -10.455112271355752 15.839084005694767 0 0 0
2578 61 3 0.170391 -2.029916832580504 -13.743157892561683 16.352327393674496 1 0 0
2579 61 3 0.170391 -2.7429548328106486 -15.647037114914951 17.757786929922638 1 0 0
2693 64 9 -0.503842 -2.427815318465235 -9.57279655199006 16.19894453855448 1 0 0
198 4 3 0.170391 0.7697836501009574 -14.252631299147033 19.611703913297436 0 0 0
2551 61 10 -0.244945 -0.1684204901614197 -8.886327338859118 12.338575758519127 1 0 0
60 1 3 0.170391 1.194597116201082 -13.2643735831968 14.446693726759584 0 0 0
2698 64 7 0.206307 -1.0974335880504127 -11.51598160098402 18.516049720796975 1 0 0
191 4 10 -0.244945 1.341837736296546 -14.470461042442643 20.51899685685693 0 0 0
2697 64 13 0.084323 -1.2737036177190435 -10.205539742542342 18.934110852441187 1 0 0
199 4 3 0.170391 0.06551404485057644 -16.022302799721466 21.098775820386592 0 0 0
54 1 10 -0.244945 1.3029514724103524 -14.718420870191224 16.029518863198636 0 0 0
2829 67 3 0.170391 1.737230843726945 -9.447180821291632 21.58902731258405 1 0 0
2992 70 3 0.170391 -2.1516963205868636 -13.547853632358226 10.530627161129168 1 0 1
2703 64 3 0.170391 -1.3926027903860358 -13.629922934929489 19.014230824555426 1 0 0
190 4 11 0.152064 2.6024937321325683 -13.848227725555986 20.713692484785796 0 0 0
2560 61 7 0.206307 -1.550861727283393 -11.743447880868843 12.860637286472024 1 0 0
61 1 3 0.170391 0.26955125288725945 -14.910397142925106 15.880117397989059 0 0 0
2705 64 3 0.170391 -1.9775929837133517 -8.960184138709906 20.52091611221005 1 0 0
46 1 3 0.170391 2.5595613977049516 -12.588235848019579 12.88270721759125 0 0 0
2700 64 11 0.152064 -2.3352502071821992 -12.35810127873944 20.47346944214591 1 0 0
192 4 10 -0.244945 0.9722218863974477 -15.568157476217102 21.337302715232287 0 0 0
43 1 10 -0.244945 3.336174931572018 -11.986146905179837 13.201561038613647 0 0 0
65 1 2 0.230579 1.7604196089139097 -16.66958216911756 18.732917549114568 0 0 0
470 10 10 -0.244945 2.9394495458667937 -14.741752471515419 10.522911130562456 0 0 1
473 10 3 0.170391 3.258455338165231 -15.053899051938203 11.519656385079537 0 0 1
2834 67 1 0.149793 0.5266601960458677 -11.907069665716683 21.908936272209797 1 0 0
64 1 2 0.230579 0.42547915839278083 -16.44291279936408 17.705619848707812 0 0 0
2701 64 10 -0.244945 -2.5228304305553717 -11.027508628425913 20.888357622490318 1 0 0
479 10 2 0.230579 1.3767802182398827 -16.5028359859551 11.702050979856692 0 0 1
180 4 11 0.152064 3.1616801070421707 -12.871059448808126 19.764828120511947 0 0 0
195 4 10 -0.244945 3.3559503529198165 -14.399553476998555 21.77686647084994 0 0 0
52 1 11 0.152064 3.261766232781348 -13.435407101178967 15.320695278607053 0 0 0
2692 64 3 0.170391 0.4390687775277793 -8.388584125319099 19.702689445150554 1 0 0
2991 70 10 -0.244945 -2.845124050835622 -14.137823925955885 9.941826667254299 1 0 1
2980 70 3 0.170391 -2.053438100066824 -11.588495002426207 9.64413518443321 1 0 1
2943 70 5 0.314181 3.0224531881755046 -0.345326786435308 1.390853072152693 1 0 1
1690 41 5 0.314181 -1.5266880750981806 -1.3133477610572442 8.280512677746675 1 0 0
2533 61 4 0.222004 2.8744718126238946 -2.332752108186554 8.663175073647738 1 0 0
2537 61 10 -0.244945 1.2687425044819531 -5.407163077340151 7.246105767245521 1 0 0
2959 70 3 0.170391 0.3599143959687292 -6.502215167277512 2.0216333894330947 1 0 1
2955 70 10 -0.244945 2.0516099964119348 -5.406643781275804 1.4527383700309227 1 0 1
2523 60 6 -1 0.15320048802341013 -1.9729977053359278 4.246698718340298 1 0 0
2110 50 2 0.230579 -2.346950082941707 -3.449905153266272 -0.5366225191515522 1 0 1
2972 70 1 0.149793 -2.4858760531946404 -8.14801856904068 6.601746268145235 1 0 1
2960 70 11 0.152064 1.2896662480631504 -7.612203057146225 4.448016426839693 1 0 1
2532 61 4 0.222004 1.7977033206480644 -1.653197172448884 7.4338771625219735 1 0 0
2102 50 5 0.314181 -2.4218405438842225 -0.03942624191047628 1.7157917519748143 1 0 1
2539 61 11 0.152064 0.8297296230109183 -6.409377292947539 9.467806979887309 1 0 0
2109 50 2 0.230579 -1.2836347438307132 -3.2147964232969457 0.9255658971982227 1 0 1
1695 41 2 0.230579 -1.3892758079017848 -3.449713481843915 7.274236915747405 1 0 0
2953 70 11 0.152064 1.9185617588697021 -6.594651752158775 3.545313749781517 1 0 1
2937 69 6 -1 0.021059749396748373 -1.582621074321878 -1.9078641111048735 1 0 1
2534 61 8 0.353774 2.3257669146073128 -4.623685127168592 7.796963541118528 1 0 0
2961 70 12 -0.332167 -0.1783858434320642 -7.650880134385709 4.583201312387939 1 0 1
2538 61 10 -0.244945 0.5039147689346506 -6.255572079483727 8.107664652152195 1 0 0
1692 41 4 0.222004 -2.730370578220313 -1.4827023047720331 6.390611748151493 1 0 0
2111 50 10 -0.244945 -2.831147259730418 -4.610700386821463 2.6270936152495836 1 0 1
2117 50 3 0.170391 -2.207030084219157 -3.983065657421264 3.181330872867706 1 0 1
2830 67 3 0.170391 -1.4665625111505027 -8.260220831797518 -0.29786640547854026 1 0 1
2967 70 3 0.170391 -0.8103361708721057 -7.014550395863125 4.050359706786355 1 0 1
1691 41 14 -0.5578880000000001 -2.5250289141078905 -3.4446941541059175 7.12406532635072 1 0 0
2103 50 5 0.314181 -1.3109695061474802 -1.1378364843637598 1.7573997637571288 1 0 1
2946 70 4 0.222004 1.9303100953333714 -2.3581648887985125 1.4233965656065508 1 0 1
1688 41 5 0.314181 -2.7951644330584706 -1.725645702667265 9.395064866349909 1 0 0
2826 67 10 -0.244945 -0.1839401023446321 -7.501607114931453 -1.767692703317919 1 0 1
2822 67 11 0.152064 0.8772525839583638 -7.790232481231257 -2.755357928911454 1 0 1
2100 50 16 -0.341435 -2.3161100422022014 -1.0341304403366394 1.8348017841324453 1 0 1
2956 70 3 0.170391 1.6026080182828921 -5.114819406970312 0.5545046281696516 1 0 1
2828 67 3 0.170391 -0.45431937514837717 -6.446851332297314 -1.6634219465367834 1 0 1
2543 61 3 0.170391 0.9889793004340843 -5.288926682844675 6.18178092528348 1 0 0
2544 61 3 0.170391 -0.20880739875669097 -6.843357622547501 7.579643347157878 1 0 0
2954 70 10 -0.244945 1.375469315439672 -6.187978172497395 2.279283638172021 1 0 1
2105 50 14 -0.5578880000000001 -2.3222423004687442 -3.295564189856435 0.5679272522441652 1 0 1
2948 70 8 0.353774 3.2280109590504487 -4.834183530806278 1.8053276104533071 1 0 1
2553 61 3 0.170391 -1.8598729815101738 -7.244116454067061 9.263502807710099 1 0 0
2941 70 15 -0.233353 3.013703400699947 -2.351808206058706 1.5272622932457656 1 0 1
1696 41 2 0.230579 -2.6508649541458613 -3.727568222470836 6.090295209817526 1 0 0
2527 61 15 -0.233353 2.8182766853384877 -2.1566947677238915 7.587530500944743 1 0 0
2541 61 10 -0.244945 2.7839380437643393 -4.857935104782825 9.085555383530336 1 0 0
1980 47 3 0.170391 -2.8310851508480974 -6.1140740163886065 -2.059589370426184 1 0 1
1686 41 16 -0.341435 -2.5397261961653506 -1.306149774451825 8.435685906491337 1 0 0
2952 70 10 -0.244945 3.193896442888198 -6.0537043208393655 3.8459227042013375 1 0 1
2944 70 5 0.314181 3.3291540574045047 -1.1643763224223278 -0.10559703738154888 1 0 1
2104 50 5 0.314181 -2.56154859195309 -1.2612841628505578 2.836691687822033 1 0 1
2536 61 2 0.230579 2.7525545424450892 -3.535928616884604 5.930809610464209 1 0 0
2531 61 14 -0.5578880000000001 3.0273619208833016 -3.600457043250543 6.940276075945597 1 0 0
2947 70 4 0.222004 3.2896496711850243 -2.2502126290225704 2.6042859146908026 1 0 1
2971 70 1 0.149793 -2.8349411025682656 -7.857002356683751 4.975737113605608 1 0 1
2688 64 10 -0.244945 0.7521353556446018 -7.162577372130464 17.933839809340135 1 0 0
1831 44 4 0.222004 -1.4947206133271507 -1.1476829248152853 14.300447936955504 1 0 0
1829 44 14 -0.5578880000000001 -2.207673471065041 -3.1220071333196273 13.71828580943232 1 0 0
2676 64 10 -0.244945 2.521286477459751 -5.630413638693703 15.89822139264114 1 0 0
2819 67 3 0.170391 0.8332076652373153 -4.028364975348573 19.936175523041076 1 0 0
2545 61 3 0.170391 2.3011940183522888 -5.889448081295889 10.929561753913932 1 0 0
2661 63 6 -1 0.19809806383225048 -1.9441987456813337 10.81107177750414 1 0 0
2816 67 10 -0.244945 2.942702135874011 -6.412297776395761 22.212094175165145 1 0 0
1839 44 10 -0.244945 -2.3059062231228302 -4.6981669507216495 15.643956321934072 1 0 0
2540 61 10 -0.244945 2.0520432839700553 -5.775063609446015 9.902357190817305 1 0 0
2684 64 11 0.152064 0.4366653773291205 -7.053347325723692 16.514409799449574 1 0 0
1833 44 2 0.230579 -1.090999937572609 -3.275013742031902 13.751402199532448 1 0 0
2665 64 15 -0.233353 3.272324694305239 -1.8660972894157482 13.467841908117434 1 0 0
1840 44 3 0.170391 -1.3315723436316487 -4.196170876685237 15.93744873046549 1 0 0
2671 64 4 0.222004 2.1975902952923545 -1.7315373646977719 13.391810283336847 1 0 0
1702 41 3 0.170391 -2.373187476535519 -4.067010840796158 9.865434297972543 1 0 0
1968 47 4 0.222004 -2.3010423038272285 -1.2432425228426496 19.054245045470086 1 0 0
2547 61 12 -0.332167 -1.3141161378890638 -7.717635889058997 10.084990867165697 1 0 0
2677 64 11 0.152064 1.2017681218116683 -6.089003066580283 15.582025246540848 1 0 0
1965 47 5 0.314181 -1.6861767690961784 -0.9748581944530912 21.29893070535712 1 0 0
2679 64 10 -0.244945 1.5609673431796671 -4.856937754274895 13.445876063863855 1 0 0
2815 67 11 0.152064 1.575771386983384 -6.709013270062144 21.91690634255791 1 0 0
2683 64 3 0.170391 -0.25731046023043946 -5.955457925280001 13.93682063003673 1 0 0
2685 64 12 -0.332167 -0.6416486419588514 -7.810131342842524 16.033560215397245 1 0 0
2550 61 10 -0.244945 0.6098576920727639 -8.041579485249862 11.490771626008076 1 0 0
2813 67 10 -0.244945 1.437966795918316 -4.560356701091692 20.658633491804597 1 0 0
2820 67 3 0.170391 -0.20175430900147173 -5.934022249060341 20.97584327793751 1 0 0
2808 67 4 0.222004 1.8183851317491428 -1.855192330687899 20.66485799522669 1 0 0
1973 47 10 -0.244945 -2.6984363434068097 -4.605455606282078 21.801702755206048 1 0 0
2690 64 3 0.170391 1.6162432293521491 -6.6131324266207585 18.240991720841265 1 0 0
2680 64 3 0.170391 1.1839937192673635 -4.501485359414666 12.498951259373579 1 0 0
1843 44 3 0.170391 -2.6576356820273372 -5.933868150007072 17.472149065586652 1 0 0
1962 47 16 -0.341435 -2.752060321443069 -0.9787867224758457 21.17394131432998 1 0 0
2799 66 6 -1 0.6087448211020896 -1.9005731470053462 17.311947928442553 1 0 0
1830 44 4 0.222004 -2.4405846897513452 -1.9383216065661344 15.494493528461865 1 0 0
2814 67 10 -0.244945 0.8304524973258851 -5.74000209829773 21.171810814978638 1 0 0
1825 44 15 -0.233353 -2.3144226737497506 -1.7739681230128213 14.377813640962792 1 0 0
1979 47 3 0.170391 -1.8096396537490342 -4.184165545857233 22.15071866418086 1 0 0
2678 64 10 -0.244945 0.7724487076255131 -5.710202604179145 14.274674628053399 1 0 0
1834 44 2 0.230579 -2.4519212919291955 -2.975839372555029 12.653529640413277 1 0 0
2546 61 11 0.152064 -0.0039683439112367935 -7.275238817592722 10.403214889175027 1 0 0
1971 47 2 0.230579 -1.2500573168970481 -3.234100120945101 20.015493580733377 1 0 0
2691 64 3 0.170391 -0.9754360654927399 -7.6678592809880755 15.005020617110516 1 0 0
2552 61 3 0.170391 1.6352645610799983 -7.805587238162111 11.684742790590366 1 0 0
2672 64 8 0.353774 2.8220583905817436 -4.375306179336725 13.845879960815166 1 0 0
1967 47 14 -0.5578880000000001 -2.370646462159546 -3.207303120282873 19.786435367149693 1 0 0
2666 64 5 0.314181 3.156499177909717 -2.2627362386383822 15.495173979809046 1 0 0
2682 64 3 0.170391 2.9357933852173805 -5.892083376944228 16.798008188737064 1 0 0
2675 64 10 -0.244945 3.31562237576609 -4.812130069045402 15.047928329607153 1 0 0
2803 67 15 -0.233353 2.915779942586688 -1.9196064955020802 20.95485610047419 1 0 0
2810 67 8 0.353774 2.8053479239775156 -4.3607682394381655 20.851635135172405 1 0 0
2689 64 10 -0.244945 0.15547639668137547 -8.187390665200823 18.675023944964344 1 0 0
1972 47 2 0.230579 -2.4545180252278724 -3.5619764616220095 18.74896677143362 1 0 0
2809 67 4 0.222004 3.1481587194438725 -1.9269497796261135 22.057717536086372 1 0 0
2806 67 5 0.314181 2.690726919697901 -0.03195902278460494 20.343522512076845 1 0 0
2812 67 2 0.230579 3.210366335449226 -3.1162066205222203 19.152731559112276 1 0 0
2674 64 2 0.230579 3.3739635554257146 -3.412404600478993 11.98941107408485 1 0 0
3024 71 3 0.170391 1.003443958209774 5.920080701400096 1.630832140053862 1 0 1
2935 69 17 2 0.2175999168057139 1.4944685349019124 -1.5138956819875031 1 0 1
2172 51 14 -0.5578880000000001 -2.092990874371332 5.992909731565817 2.242520722777197 1 0 1
1758 42 14 -0.5578880000000001 -2.4283281230025024 5.470439344322315 8.491400657033825 1 0 0
2593 62 16 -0.341435 2.6312584238546513 3.6634221544169066 7.5070265123124145 1 0 0
3018 71 10 -0.244945 1.540578280052618 6.85010239828479 1.4720499750270208 1 0 1
2611 62 3 0.170391 0.6466002893883473 8.371143198364493 7.411141667648425 1 0 0
1764 42 10 -0.244945 -2.357249234212103 7.30067705723404 6.77742485313018 1 0 0
3009 71 5 0.314181 3.1436428334424957 5.057490942904721 -0.20285444553677878 1 0 1
2596 62 5 0.314181 2.399526111281641 2.947333543863863 6.817311013373527 1 0 0
2606 62 11 0.152064 2.007570794316258 8.51804753029991 5.867818491499541 1 0 0
2521 60 17 2 0.4139524244648247 1.271028931471065 4.648597414635046 1 0 0
2525 60 6 -1 0.35147762991245557 4.552881432459188 4.852456310589707 1 0 0
3025 71 3 0.170391 -0.11377663339397737 7.762263624002529 0.4382921400468191 1 0 1
2595 62 5 0.314181 2.385042344179196 3.2535302630227108 8.375632342909237 1 0 0
2604 62 10 -0.244945 2.347742710123771 7.081630906756686 7.795346414691567 1 0 0
2168 51 15 -0.233353 -2.122091254556097 4.504530990806828 1.6086936557458733 1 0 1
2173 51 4 0.222004 -1.5769530262633373 4.5762206093632045 0.6438190291891708 1 0 1
1770 42 3 0.170391 -1.3005972770940837 7.054682302315541 6.478864159576383 1 0 0
2619 62 3 0.170391 0.7340214856645328 8.331979275594293 3.528763698068755 1 0 0
3014 71 4 0.222004 2.1340222574691077 4.173672000843396 2.1662753204497887 1 0 1
2524 60 6 -1 -0.00909592347612298 1.2601860868653318 7.670211705316224 1 0 0
2938 69 6 -1 0.5044712839352332 1.2065283231153927 1.319101790379456 1 0 1
3015 71 8 0.353774 2.905969810793566 6.889257013499105 1.8028666914226446 1 0 1
2096 49 6 -1 -2.8071405698686838 1.6996673430580103 -1.7377105720069639 1 0 1
1682 40 6 -1 -2.673763796949986 1.3676929806000118 4.307344432523881 1 0 0
2610 62 3 0.170391 1.9122646695890917 6.800588754021177 8.753070264895436 1 0 0
2176 51 2 0.230579 -1.0738744301011127 6.35957208948291 2.45574591800755 1 0 1
3019 71 10 -0.244945 0.9093973692048634 7.856722700671639 0.7483499556908512 1 0 1
2605 62 10 -0.244945 1.6231959539487009 8.093200146914583 7.147839879650752 1 0 0
2174 51 4 0.222004 -1.5997369552789733 3.711908273607591 2.1194148541138977 1 0 1
1759 42 4 0.222004 -2.3761243975758477 3.34599618053808 8.686596147872855 1 0 0
2939 69 6 -1 0.5093078211160131 4.84604816684373 -1.7729684725853991 1 0 1
1762 42 2 0.230579 -1.36177665566366 5.41911742739309 8.277935496517653 1 0 0
2597 62 5 0.314181 2.0209144530119185 4.5015548729906385 7.308147279328816 1 0 0
2177 51 2 0.230579 -2.606465296728789 5.924764965720598 3.2598223312382673 1 0 1
1755 42 5 0.314181 -2.1568256548552442 3.492028720954508 6.482435993443329 1 0 0
2607 62 10 -0.244945 3.193001796187042 7.9948155421247264 5.294823758555074 1 0 0
2936 69 6 -1 3.2444962498124092 1.3563764584317255 -2.0884772134773937 1 0 1
3008 71 15 -0.233353 3.135879588434221 4.342745837426591 1.8013461581598136 1 0 1
2184 51 3 0.170391 -2.674086709501961 8.57810966072448 2.852706177196685 1 0 1
3010 71 5 0.314181 2.861608332208402 3.372874968789347 -0.033415790923803916 1 0 1
2175 51 8 0.353774 -2.6201040052439137 7.066207656144897 1.2486748692139844 1 0 1
2183 51 3 0.170391 -2.7117713590037065 5.828144129370884 -0.4594810875051557 1 0 1
2522 60 6 -1 3.3722187178120424 1.1556785815766375 4.703249786292661 1 0 0
3007 71 16 -0.341435 3.350356261307438 4.2117557323327475 0.3620325419278951 1 0 1
1763 42 2 0.230579 -2.507672120039356 5.796369138003911 9.575344747438704 1 0 0
2797 66 17 2 0.43372221960373825 1.0658528459499195 17.110214952845144 1 0 0
2801 66 6 -1 0.6208391925687482 4.498226384559601 17.48342826631656 1 0 0
2882 68 11 0.152064 1.99387455059285 8.689008979903306 18.71559730135477 1 0 0
2742 65 10 -0.244945 2.147319492190856 7.290210788506599 14.513945136695032 1 0 0
2738 65 4 0.222004 2.2158906907035942 4.4061016938587585 14.436138632571973 1 0 0
2663 63 6 -1 0.7571214504109727 4.3271503765237185 10.919192122212428 1 0 0
2038 48 2 0.230579 -1.2669750194147693 5.893483211083449 20.086881492403243 1 0 0
2800 66 6 -1 -0.04010684464370229 1.26948045594564 20.17684530319575 1 0 0
1906 45 10 -0.244945 -1.78503213884477 7.2983548007138666 12.646211966750085 1 0 0
2886 68 3 0.170391 2.134149174077159 7.1500069542910865 21.751714660799824 1 0 0
2659 63 17 2 0.32810911084919603 1.3024048965936288 10.898593078376587 1 0 0
2872 68 5 0.314181 1.9149874334235961 4.14410897722172 20.43055993715639 1 0 0