LAMMPS data file via write_data, version 23 Jun 2022, timestep = 1000000

2528 atoms
22 atom types
2496 bonds
23 bond types
4448 angles
43 angle types
6336 dihedrals
53 dihedral types

0 258.75 xlo xhi
-0.21229628879861526 17.50629628879652 ylo yhi
-1.8991791395587512 34.83917913955261 zlo zhi

Masses

1 1.008
2 1.008
3 1.008
4 1.008
5 1.008
6 126.9
7 12.01
8 12.01
9 12.01
10 12.01
11 12.01
12 12.01
13 12.01
14 12.01
15 12.01
16 12.01
17 12.01
18 12.01
19 12.01
20 14.01
21 207.2
22 16

Bond Coeffs # harmonic

1 330.6 1.0969
2 330.6 1.0969
3 330.6 1.0969
4 345.8 1.086
5 345.8 1.086
6 338.7 1.091
7 373.2 1.0304
8 300.9 1.5375
9 321 1.5156
10 321 1.5156
11 461.1 1.3984
12 461.1 1.3984
13 321 1.5156
14 461.1 1.3984
15 461.1 1.3984
16 461.1 1.3984
17 450.2 1.4058
18 351.4 1.4854
19 450.2 1.4058
20 450.2 1.4058
21 376.6 1.3696
22 300.9 1.5375
23 283.3 1.511

Angle Coeffs # harmonic

1 39.4 107.58
2 46.34 109.8
3 39.4 107.58
4 46.8 110.47
5 39.4 107.58
6 46.8 110.47
7 46.34 109.8
8 48.18 119.88
9 48.18 119.88
10 47.98 119.86
11 48.18 119.88
12 48.18 119.88
13 47.98 119.86
14 39.22 109.75
15 46.2 110.56
16 48.65 108.01
17 40.58 108.3
18 45.85 110.11
19 63.53 120.77
20 63.53 120.77
21 66.62 120.02
22 66.26 120.69
23 66.62 120.02
24 63.15 112.07
25 62.86 111.51
26 63.15 112.07
27 63.56 112.24
28 66.26 120.69
29 69.58 119.2
30 63.53 120.77
31 66.62 120.02
32 63.53 120.77
33 66.26 120.69
34 66.72 118.38
35 64.05 121.11
36 64.05 121.11
37 64.05 121.11
38 66.62 120.02
39 66.62 120.02
40 66.72 118.38
41 63.48 119.89
42 64.18 114.21
43 70.06 116.91

Dihedral Coeffs # opls

1 0 0 0.32 0
2 0 0 0.311111 0
3 0 0 0 0
4 0 0 0 0
5 0 0 0.311111 0
6 0 0 0.311111 0
7 0 7.25 0 0
8 0 7.25 0 0
9 0 7.25 0 0
10 0 7.25 0 0
11 0 7.25 0 0
12 0 7.25 0 0
13 0 7.25 0 0
14 0 7.25 0 0
15 0 7.25 0 0
16 0 7.25 0 0
17 0 7.25 0 0
18 0 7.25 0 0
19 0 7.25 0 0
20 0 0 0.311111 0
21 0 0 0.311111 0
22 0 0 0.311111 0
23 0 7.25 0 0
24 0 7.25 0 0
25 0 7.25 0 0
26 0 7.25 0 0
27 0 7.25 0 0
28 0 7.25 0 0
29 0 7.25 0 0
30 0 0 0.311111 0
31 0 0 0 0
32 0 0 0 0
33 0 0 0 0
34 0 0 0 0
35 0 7.25 0 0
36 0 7.25 0 0
37 0 7.25 0 0
38 0 7.25 0 0
39 0 1.8 0 0
40 0 7.25 0 0
41 0 7.25 0 0
42 0 0 0 0
43 0 7.25 0 0
44 0 7.25 0 0
45 0 7.25 0 0
46 0 2 0 0
47 0 2 0 0
48 0 7.25 0 0
49 0 7.25 0 0
50 0 7.25 0 0
51 0 7.25 0 0
52 0 7.25 0 0
53 0 1.8 0 0

Atoms # full

1699 1684 13 -0.1489440379746836 23.380198063871312 6.116593929399266 -1.8951786403177557 0 0 1
758 692 8 -0.1555560379746836 19.85092945321376 7.125250737479832 5.750250881306848 0 0 0
88 60 11 0.0607159620253164 18.933527183806373 1.253704927174723 6.351837498761073 0 0 0
89 60 16 -0.0518930379746836 20.336072030938304 1.4894537220239674 6.418101499548118 0 0 0
101 60 1 0.0544599620253164 17.817429225973008 1.4124200153609194 3.8489834478752516 0 0 0
86 60 15 -0.0790760379746836 18.09285325403425 2.0506290744758147 7.188472549939728 0 0 0
116 60 13 -0.1489440379746836 23.608719353159024 0.5839535616860263 4.028510856169732 0 0 0
77 60 14 0.1183179620253164 22.32808419394771 3.0237467883945883 7.100964395339707 0 0 0
117 60 3 0.1342949620253164 22.793644967938636 1.2637518297823733 3.620136939604203 0 0 0
61 60 22 -0.0284400379746836 21.12828083660902 0.7657952762048419 5.582672236017645 0 0 0
765 692 1 0.0544599620253164 19.781582866895487 5.917577993174998 4.046264108537986 0 0 0
764 692 1 0.0544599620253164 19.286564172895268 5.093519524308459 5.5607036878782665 0 0 0
752 692 3 0.1342949620253164 23.83825852062509 6.967778245954616 6.164869549817618 0 0 0
763 692 12 -0.0578530379746836 19.241040589238597 5.972094431213699 4.9297947836540175 0 0 0
82 60 18 -0.0340050379746836 20.895037745310933 2.5947919651826705 7.126370284873016 0 0 0
757 692 3 0.1342949620253164 21.783806568415343 7.014037154749716 4.629521040855577 0 0 0
766 692 1 0.0544599620253164 18.22084939438695 6.120937872303079 4.66934839562139 0 0 0
79 60 3 0.1342949620253164 22.523477556359985 3.6335983243760084 5.036860137916531 0 0 0
99 60 10 -0.1787800379746836 17.263311680766225 0.6611770504861163 4.510046630114737 0 0 0
760 692 3 0.1342949620253164 18.09849984238307 7.580797367366653 6.970326787415959 0 0 0
759 692 15 -0.0790760379746836 19.093370503634592 7.850397662369293 6.634823387569093 0 0 0
94 60 7 0.1123889620253164 18.312890966496134 0.06988043547146744 5.4437838933746585 0 0 0
756 692 15 -0.0790760379746836 21.1701496504941 7.510937695954988 5.462556552359643 0 0 0
102 60 1 0.0544599620253164 16.515198293167504 1.1767255865582282 5.078669224397901 0 0 0
1715 1684 1 0.0544599620253164 17.683639772334594 2.2586899455003473 -1.631557486716687 0 0 1
78 60 13 -0.1489440379746836 23.039651166939784 3.522277535989798 5.963783088427282 0 0 0
87 60 3 0.1342949620253164 16.988787067033595 1.9714424814858642 7.176249816775092 0 0 0
1717 1684 1 0.0544599620253164 19.273606100056863 1.4733926588385127 -1.716213952769869 0 0 1
1700 1684 3 0.1342949620253164 22.81264479425835 6.917211441095951 -1.4766984496976356 0 0 1
100 60 1 0.0544599620253164 16.83846139036902 -0.11964540533620503 3.8419036361507213 0 0 0
751 692 13 -0.1489440379746836 24.16342526059978 7.926642835172432 5.77191302824474 0 0 0
1708 1684 3 0.1342949620253164 21.210598802062485 2.8327398002500965 -1.799978199618463 0 0 1
755 692 18 -0.0340050379746836 21.754448202965676 8.638491514797465 6.038502144706149 0 0 0
477 420 3 0.1342949620253164 22.819457489823233 7.633159670677823 14.413072522493355 0 0 0
1124 1052 1 0.0544599620253164 17.758624881114947 1.9162345144977626 12.327199521774524 0 1 0
461 420 1 0.0544599620253164 16.66187705687077 8.522881224683932 15.450992538894376 0 0 0
83 60 15 -0.0790760379746836 20.000470981485677 3.2629509180737677 8.000084677364166 0 0 0
1117 1052 3 0.1342949620253164 21.404478274295585 1.36832937891104 12.714548631827716 0 1 0
438 420 13 -0.1489440379746836 23.461734826281923 4.180196097165363 16.408263913066854 0 0 0
1118 1052 8 -0.1555560379746836 19.40620978871479 0.9352035128892046 13.517956788893654 0 1 0
1116 1052 15 -0.0790760379746836 20.831340169886673 0.7438678255925038 13.41162148010807 0 1 0
462 420 1 0.0544599620253164 17.961296268863382 7.298464189805715 14.736374601997413 0 0 0
85 60 8 -0.1555560379746836 18.61105679026744 3.0443252944736656 8.026155139384608 0 0 0
90 60 12 -0.0578530379746836 17.735771883081064 3.886029846944955 9.08370446341845 0 0 0
460 420 1 0.0544599620253164 16.76317087626232 6.811090338297323 15.920161134797883 0 0 0
91 60 1 0.0544599620253164 16.98932392341626 4.483647463078959 8.554542211171876 0 0 0
421 420 22 -0.0284400379746836 21.35234982124441 7.758159139007898 16.30822652002988 0 0 0
476 420 13 -0.1489440379746836 23.632617528637542 8.409371121746872 14.555809110829408 0 0 0
1111 1052 13 -0.1489440379746836 23.672181933641145 0.3422467104595042 15.265623003545732 0 1 0
1112 1052 3 0.1342949620253164 23.062088857038514 0.9631468640672398 16.000162175968413 0 1 0
93 60 1 0.0544599620253164 17.191784640436833 3.297784245537981 9.852251822848563 0 0 0
1123 1052 12 -0.0578530379746836 18.80952379380631 2.0959470746213684 12.759555873519224 0 1 0
75 60 13 -0.1489440379746836 23.020754689989516 3.0037612608252817 8.382854754884288 0 0 0
459 420 10 -0.1787800379746836 17.39209566215689 7.648197735627781 15.608505301470803 0 0 0
1125 1052 1 0.0544599620253164 18.809536261636115 3.0726983318690984 13.368326484506001 0 1 0
84 60 3 0.1342949620253164 20.35067548946778 4.05663684842611 8.5840068913313 0 0 0
729 692 1 0.0544599620253164 17.869164284736346 8.1947320321366 9.036970757334158 0 0 0
1119 1052 15 -0.0790760379746836 18.706259814145128 0.3087849086424136 14.570553241650158 0 1 0
1126 1052 1 0.0544599620253164 19.42410738587809 2.3427704852573945 11.888838931945275 0 1 0
439 420 3 0.1342949620253164 22.757710637515608 3.3440618575486463 16.1558763937265 0 0 0
92 60 1 0.0544599620253164 18.379292872951424 4.678293057775876 9.60236548715096 0 0 0
1120 1052 3 0.1342949620253164 17.70460457412727 0.45066258039439094 14.632776327996543 0 1 0
76 60 3 0.1342949620253164 22.541269171020826 2.50692913962868 9.16751636192265 0 0 0
1115 1052 18 -0.0340050379746836 21.53158056921567 -0.0838514805997355 14.283461757120776 0 1 0
1110 1052 14 0.1183179620253164 22.920399998672675 -0.12628764987368513 14.22148352662828 0 1 0
1366 1324 1 0.0544599620253164 19.050222812415072 2.530213669902746 22.229176594304185 0 0 0
1393 1324 11 0.0607159620253164 19.73881871411679 0.7102199897970524 23.902201932259004 0 0 0
2021 1956 3 0.1342949620253164 20.919725192172827 7.138373130335702 22.665085526688213 0 0 0
1363 1324 10 -0.1787800379746836 18.24649885185624 2.5212993483717465 22.935197231526445 0 0 0
2020 1956 15 -0.0790760379746836 20.470471903899544 7.965125762104692 23.17094683304551 0 0 0
1358 1324 7 0.1123889620253164 18.828436045438526 1.9536230305845306 24.25701617798078 0 0 0
2028 1956 1 0.0544599620253164 17.78234443110128 7.174037481687598 21.705052021428877 0 0 0
1394 1324 16 -0.0518930379746836 21.166209258510154 0.6918165255337297 24.130232392062 0 0 0
2015 1956 13 -0.1489440379746836 23.43808517654603 7.742301129707842 23.24606992910041 0 0 0
450 420 12 -0.0578530379746836 18.509457422745516 3.2692151496922963 18.353685703147463 0 0 0
2027 1956 12 -0.0578530379746836 18.215280828410382 6.925191758641535 22.681490337832443 0 0 0
1359 1324 10 -0.1787800379746836 17.570181470782405 1.4192752921370575 25.06612599483428 0 0 0
1343 1324 3 0.1342949620253164 23.72073088824192 3.7603065381787553 24.186394398056184 0 0 0
1365 1324 1 0.0544599620253164 17.47225474518838 1.8018925752768946 22.577837108490165 0 0 0
2022 1956 8 -0.1555560379746836 19.101460465021187 8.041647113936229 23.21144635210659 0 0 0
2029 1956 1 0.0544599620253164 17.389780081862046 6.752748228068794 23.3488663540467 0 0 0
2030 1956 1 0.0544599620253164 18.819110999548926 6.082148046899554 22.519697159001897 0 0 0
443 420 15 -0.0790760379746836 20.716314745292433 4.326021400443775 17.437902037592384 0 0 0
1325 1324 22 -0.0284400379746836 21.680628712662827 1.761219157502387 24.894514026595647 0 0 0
437 420 14 0.1183179620253164 22.884601417856118 5.426057852374944 16.854048341490216 0 0 0
451 420 1 0.0544599620253164 17.63466722943509 3.6833166068776504 19.026273512065305 0 0 0
2016 1956 3 0.1342949620253164 22.897149571770857 6.8683516022670625 23.531581537888428 0 0 0
1342 1324 13 -0.1489440379746836 24.118320520564065 3.7632024902655914 25.143929978757903 0 0 0
1364 1324 1 0.0544599620253164 17.72075467936178 3.4316788691218214 23.06057983709756 0 0 0
452 420 1 0.0544599620253164 17.97501664204361 2.6867525966024224 17.563598180272535 0 0 0
446 420 15 -0.0790760379746836 18.646225958976412 5.56304822733073 17.396525455532586 0 0 0
435 420 13 -0.1489440379746836 23.817424516022054 6.323364354925499 17.301408073909023 0 0 0
436 420 3 0.1342949620253164 23.474850784263445 7.271886168522938 17.615055474334216 0 0 0
1353 1324 16 -0.0518930379746836 20.996497948843913 2.8745992820021007 25.29453592637865 0 0 0
444 420 3 0.1342949620253164 21.139156703656024 3.3565895394566474 17.52707003233535 0 0 0
1352 1324 11 0.0607159620253164 19.61150288287084 3.006512113352683 25.047694997228927 0 0 0
445 420 8 -0.1555560379746836 19.33680592887213 4.421691858194899 17.708291807279018 0 0 0
1360 1324 1 0.0544599620253164 16.93580528188209 2.193890557781332 25.539795785177006 0 0 0
458 420 1 0.0544599620253164 17.066541312941894 7.882826704800913 18.297932608531678 0 0 0
455 420 10 -0.1787800379746836 17.908875345486198 8.506887562307249 17.852811490134414 0 0 0
448 420 11 0.0607159620253164 19.24239308746433 6.629602094971354 16.690742809031285 0 0 0
1350 1324 15 -0.0790760379746836 18.929639894728204 4.1421909850552945 25.526105643530325 0 0 0
1351 1324 3 0.1342949620253164 17.86135003018103 4.253520471965027 25.309464665118732 0 0 0
1362 1324 1 0.0544599620253164 16.896310649561663 0.7262770037515213 24.496929484547728 0 0 0
1384 1324 3 0.1342949620253164 23.880732819598215 1.1791843856162654 25.130180100915833 0 0 0
442 420 18 -0.0340050379746836 21.4121311352506 5.476680293832698 17.014822802016248 0 0 0
1088 1052 1 0.0544599620253164 17.125555820187156 -0.0008682601425852796 16.935706397844005 0 1 0
447 420 3 0.1342949620253164 17.596878604258432 5.654622568167226 17.670893787926307 0 0 0
454 420 7 0.1123889620253164 18.502756306883846 8.012080885886395 16.544111633871328 0 0 0
449 420 16 -0.0518930379746836 20.64288048273675 6.6469048821659165 16.648692845406764 0 0 0
453 420 1 0.0544599620253164 19.08773651967999 2.583767954472088 18.999555556573398 0 0 0
1090 1052 1 0.0544599620253164 18.792693428322686 0.12377034345727224 17.64815095195856 0 1 0
456 420 1 0.0544599620253164 18.67161860278633 8.53350111043608 18.625191314877796 0 0 0
1346 1324 18 -0.0340050379746836 21.720159937166322 3.968286809795042 25.904457244426464 0 0 0
2374 2316 14 0.1183179620253164 22.889387906781824 0.3175076777874814 31.52101116019483 0 1 0
1354 1324 12 -0.0578530379746836 18.917324981734215 6.523533092582119 26.45072730039939 0 0 0
1361 1324 1 0.0544599620253164 17.986164274020247 0.771143707470556 25.909280131892366 0 0 0
1349 1324 8 -0.1555560379746836 19.65983852393494 5.22990976706817 26.1181254483219 0 0 0
1712 1684 11 0.0607159620253164 19.19164908523602 5.796322631886176 33.33524774202975 0 0 0
1722 1684 1 0.0544599620253164 16.74837285380281 8.24562308652342 33.11458959990911 0 0 0
1357 1324 1 0.0544599620253164 19.661022620495974 7.323000006749116 26.419343828266367 0 0 0
2382 2316 8 -0.1555560379746836 19.336595439028176 0.96467393301093 30.6330182972312 0 1 0
1718 1684 7 0.1123889620253164 18.380383707086303 6.941300182658586 32.68916695328006 0 0 0
1723 1684 10 -0.1787800379746836 17.761718144528615 6.276460560789073 31.385722654634 0 0 0
2375 2316 13 -0.1489440379746836 23.634687361368556 0.2501390715168873 32.716282600671505 0 1 0
1754 1684 16 -0.0518930379746836 20.67828831878187 8.103782480752432 32.493757522223476 0 0 0
1706 1684 18 -0.0340050379746836 21.279349076833515 4.8604620995758685 34.14546265846543 0 0 0
2387 2316 12 -0.0578530379746836 18.59970927575014 2.1599307235401253 30.149891002431033 0 1 0
1724 1684 1 0.0544599620253164 16.93852637422927 5.451562187466751 31.592476456276664 0 0 0
1707 1684 15 -0.0790760379746836 20.63271438182065 3.6384097057295897 34.396533053652796 0 0 0
1716 1684 1 0.0544599620253164 18.14828253136067 1.8154765214239252 33.582104313629735 0 0 0
1685 1684 22 -0.0284400379746836 21.291598201773564 6.990292822107654 33.0544844129528 0 0 0
1340 1324 3 0.1342949620253164 23.046078183532604 4.006114054605829 28.29672095758243 0 0 0
1719 1684 10 -0.1787800379746836 17.21944804580668 7.454299456868069 33.68658142792709 0 0 0
1710 1684 15 -0.0790760379746836 18.54332756165199 4.573204165667346 33.64750672378527 0 0 0
1348 1324 3 0.1342949620253164 21.652106997442765 5.994762801642635 26.667362040615668 0 0 0
1713 1684 16 -0.0518930379746836 20.57515398121583 5.908722189376699 33.52433685003561 0 0 0
1339 1324 13 -0.1489440379746836 23.706038427178296 3.8596738274584825 27.471911058062606 0 0 0
1741 1684 3 0.1342949620253164 23.435752032357854 6.840927282501169 31.879472811789565 0 0 0
1347 1324 15 -0.0790760379746836 21.015690430752596 5.150680019830798 26.27765949860122 0 0 0
1740 1684 13 -0.1489440379746836 23.858179817442473 7.844382475360548 32.03362882205496 0 0 0
1714 1684 12 -0.0578530379746836 18.55581995658418 2.138264469798536 34.475776876388785 0 0 0
2389 2316 1 0.0544599620253164 17.551494944917128 1.8239937643274589 30.01229052491651 0 1 0
1726 1684 1 0.0544599620253164 18.637985311040048 5.799269403346019 30.80724850299041 0 0 0
1356 1324 1 0.0544599620253164 18.072755047568304 6.764068760577197 25.72587811471417 0 0 0
1720 1684 1 0.0544599620253164 16.4224507328481 6.692422214106788 33.85120826723598 0 0 0
2380 2316 15 -0.0790760379746836 20.737316576614894 1.014308746543514 30.81361260473497 0 1 0
2381 2316 3 0.1342949620253164 21.24796135863423 1.8858595062807983 30.48946450894978 0 1 0
1703 1684 3 0.1342949620253164 23.072084415938654 3.0662219317696353 33.427298862908756 0 0 0
1702 1684 13 -0.1489440379746836 23.60019380483912 3.9230221460985204 33.830074992729784 0 0 0
2390 2316 1 0.0544599620253164 18.692117145262063 3.0320467545070353 30.876093693906906 0 1 0
1701 1684 14 0.1183179620253164 22.78069989123802 4.99487473548702 34.26740591359016 0 0 0
1341 1324 14 0.1183179620253164 23.195561305430054 3.9422451162452723 26.14256219045574 0 0 0
1355 1324 1 0.0544599620253164 18.52893113499629 6.482537792452329 27.418666372137295 0 0 0
2388 2316 1 0.0544599620253164 18.923553298560677 2.457716906509954 29.167140855225615 0 1 0
1753 1684 11 0.0607159620253164 19.270497145443617 8.102019810287848 32.22701619633494 0 0 0
1721 1684 1 0.0544599620253164 17.638027554293306 7.889511345076804 34.64635145641156 0 0 0
1725 1684 1 0.0544599620253164 17.448699641985915 7.020409914032962 30.652974217853387 0 0 0
2372 2316 13 -0.1489440379746836 23.605427414245778 0.70294548194694 30.384083558072817 0 1 0
2379 2316 18 -0.0340050379746836 21.448206183068802 0.033346952979878615 31.444286256156484 0 1 0
1711 1684 3 0.1342949620253164 17.442094018332053 4.351871489863096 33.4467572476904 0 0 0
1709 1684 8 -0.1555560379746836 19.23629228931585 3.5091627882688643 34.22521050482279 0 0 0
2373 2316 3 0.1342949620253164 23.10297336122101 0.7171226300299074 29.44073829952812 0 1 0
2376 2316 3 0.1342949620253164 23.048372735418745 -0.0863397865977034 33.56857852081133 0 1 0
2383 2316 15 -0.0790760379746836 18.696830385304292 -0.19430315090103686 31.13498492564367 0 1 0
2384 2316 3 0.1342949620253164 17.596763268767802 -0.13421609603402018 31.16446691108126 0 1 0
131 60 12 -0.0578530379746836 19.68312899603384 13.871742643115457 2.646983785564792 0 -1 0
120 60 3 0.1342949620253164 24.03305212453532 14.958842767254808 4.750126766201224 0 -1 0
125 60 3 0.1342949620253164 22.223611367972424 14.761907634430097 3.2796387543623786 0 -1 0
2340 2316 3 0.1342949620253164 22.191076245788675 11.855271217488298 -1.6957578966189408 0 0 1
748 692 13 -0.1489440379746836 23.599426613217027 10.260588668523319 5.314289741660271 0 0 0
749 692 3 0.1342949620253164 23.01142100374274 11.100639153498049 5.015291918363471 0 0 0
127 60 15 -0.0790760379746836 19.099397727756457 15.829591871050228 4.053509720288712 0 -1 0
761 692 11 0.0607159620253164 19.588305494175625 9.094992314211527 7.167708299976095 0 0 0
124 60 15 -0.0790760379746836 21.438506570137292 15.356326354150825 3.695012109158839 0 -1 0
132 60 1 0.0544599620253164 18.780259271207793 14.077574231504352 2.122994012401645 0 -1 0
134 60 1 0.0544599620253164 20.422665043793813 13.520262292513937 1.952327440270453 0 -1 0
2347 2316 1 0.0544599620253164 18.479622894579997 11.015097152424268 -1.4427436684001418 0 0 1
2332 2316 3 0.1342949620253164 23.101394513360106 13.538261560937398 -0.40926074718444744 0 0 1
762 692 16 -0.0518930379746836 20.934762565872628 9.465067506860388 6.851299891324982 0 0 0
133 60 1 0.0544599620253164 19.4389109150086 13.039852928731575 3.2780937441426397 0 -1 0
129 60 11 0.0607159620253164 19.41706809530058 16.997937887655706 4.7356284075741035 0 -1 0
118 60 14 0.1183179620253164 23.23293952916055 16.971555022629186 4.3709220658625645 0 -1 0
97 60 1 0.0544599620253164 17.10216688599974 15.999854658495947 6.091110113893712 0 -1 0
126 60 8 -0.1555560379746836 20.09215924547806 15.084692458411316 3.4559916209360524 0 -1 0
2331 2316 13 -0.1489440379746836 23.84891294085663 13.890260130424359 -1.1148468632012902 0 0 1
128 60 3 0.1342949620253164 18.044884919422454 15.628681147979524 3.853588902734549 0 -1 0
123 60 18 -0.0340050379746836 21.809060128795036 16.552336412269042 4.3585574720274805 0 -1 0
95 60 10 -0.1787800379746836 17.6085718722998 16.828237435852444 6.4897456246801655 0 -1 0
750 692 14 0.1183179620253164 23.160379586757312 8.964571922098235 5.753676287039607 0 0 0
130 60 16 -0.0518930379746836 20.7890449611943 17.373345988018894 4.9188261770433845 0 -1 0
96 60 1 0.0544599620253164 18.272995546242157 16.335843787682037 7.198975004226902 0 -1 0
733 692 1 0.0544599620253164 17.763063761222963 11.009104317978798 6.468286673682353 0 0 0
98 60 1 0.0544599620253164 16.94115571492877 17.351702835424298 7.089591644328402 0 -1 0
2346 2316 12 -0.0578530379746836 19.484309472452384 10.782370917084847 -1.757548540425968 0 0 1
119 60 13 -0.1489440379746836 24.232414126373502 15.97580433771919 4.652962214720931 0 -1 0
731 692 10 -0.1787800379746836 17.484190863167434 10.29838920050361 7.216152613808279 0 0 0
732 692 1 0.0544599620253164 17.075548641703723 9.452767111510752 6.658820708957663 0 0 0
2349 2316 1 0.0544599620253164 20.063939761219302 10.36601959503801 -0.9552538173445975 0 0 1
1122 1052 16 -0.0518930379746836 20.728805385415846 16.890330861113075 15.236820004002102 0 0 0
483 420 18 -0.0340050379746836 21.719160583983545 9.905868225051409 15.32612495202881 0 0 0
1091 1052 10 -0.1787800379746836 17.326722948055377 15.562037839964798 15.437740695330605 0 0 0
486 420 8 -0.1555560379746836 19.71965542322045 11.186925607578852 14.716775255039094 0 0 0
484 420 15 -0.0790760379746836 21.14444982823189 11.055460372997436 14.795027167014887 0 0 0
1093 1052 1 0.0544599620253164 16.560434429543424 16.326167768563092 15.075391823001665 0 0 0
491 420 12 -0.0578530379746836 19.110465026201975 12.298632468785195 13.85331801779879 0 0 0
1053 1052 22 -0.0284400379746836 21.373759041580513 16.00699961821641 16.061680189756924 0 0 0
485 420 3 0.1342949620253164 21.680983752218268 11.83558588636357 14.264035392133806 0 0 0
489 420 11 0.0607159620253164 19.401051276898222 9.102536331800854 15.90578908365028 0 0 0
720 692 11 0.0607159620253164 19.454500420852597 11.219841857649719 8.54071282315347 0 0 0
726 692 7 0.1123889620253164 18.71772796662045 9.973343080874924 8.07416682067837 0 0 0
487 420 15 -0.0790760379746836 18.810922933401663 10.245617378081537 15.323326123451833 0 0 0
722 692 12 -0.0578530379746836 18.499784283131937 14.339128934685437 10.420088548075881 0 0 0
718 692 15 -0.0790760379746836 18.67086613405046 12.211042142261165 9.12879998658397 0 0 0
493 420 1 0.0544599620253164 18.04864107495289 12.129265853854216 13.679419671532242 0 0 0
730 692 1 0.0544599620253164 17.66838809694008 9.70236161286287 9.986685054759569 0 0 0
714 692 18 -0.0340050379746836 21.43442522257088 12.675086560794343 8.602756173186574 0 0 0
723 692 1 0.0544599620253164 17.793476642466725 13.936947837509562 11.198997928837896 0 0 0
492 420 1 0.0544599620253164 19.62596395805864 12.251416031500879 12.907101965666628 0 0 0
1121 1052 11 0.0607159620253164 19.32869740977961 17.005627267362048 15.313640415419858 0 0 0
494 420 1 0.0544599620253164 19.214192143739876 13.376665043070014 14.15518373877756 0 0 0
716 692 3 0.1342949620253164 21.146399561691243 14.660997807243739 9.524393176173724 0 0 0
1071 1052 3 0.1342949620253164 23.309046054405684 14.875057256746162 15.633522613015554 0 0 0
479 420 13 -0.1489440379746836 24.22057409976747 10.644106774948572 15.2512071409776 0 0 0
724 692 1 0.0544599620253164 17.854390610179667 15.04337030239833 9.813250270882577 0 0 0
709 692 14 0.1183179620253164 22.918988371920214 12.91944880758457 8.34599182469354 0 0 0
1092 1052 1 0.0544599620253164 16.74190360809867 14.797770455147884 15.978522586720976 0 0 0
715 692 15 -0.0790760379746836 20.66950990282036 13.657982916410734 9.288820586306029 0 0 0
717 692 8 -0.1555560379746836 19.30411860616171 13.350154311002356 9.630693058374039 0 0 0
1086 1052 7 0.1123889620253164 18.49963483379133 16.073760763652768 16.180986725897263 0 0 0
708 692 3 0.1342949620253164 23.811626484413544 11.027271829029354 8.995261833647776 0 0 0
710 692 13 -0.1489440379746836 23.305561451428282 14.277089021456927 8.008698464685091 0 0 0
725 692 1 0.0544599620253164 19.15245856535589 15.072243754475172 10.879893764681434 0 0 0
719 692 3 0.1342949620253164 17.668857996454356 12.033348762022117 9.31520632623124 0 0 0
1108 1052 13 -0.1489440379746836 23.564546909348717 16.986962197954757 13.096779744349188 0 0 0
707 692 13 -0.1489440379746836 23.96209189709158 12.0719715201442 8.551661254863369 0 0 0
721 692 16 -0.0518930379746836 20.829614885461044 11.418773771560462 8.30050938330165 0 0 0
1094 1052 1 0.0544599620253164 17.75241290663842 15.085762512364843 14.54172178352432 0 0 0
488 420 3 0.1342949620253164 17.7166540743511 10.429007711038537 15.084096088110693 0 0 0
478 420 14 0.1183179620253164 23.213494855629488 9.661016947643944 15.120350692355048 0 0 0
728 692 1 0.0544599620253164 19.225547949155537 8.834342827255949 9.884277055190312 0 0 0
711 692 3 0.1342949620253164 22.47390304055349 15.02094216562515 7.737459298051573 0 0 0
480 420 3 0.1342949620253164 24.026395473155024 11.635424983618966 15.621573410387791 0 0 0
734 692 1 0.0544599620253164 16.61776452802555 10.72610680295292 7.802285327576501 0 0 0
490 420 16 -0.0518930379746836 20.815104119589993 8.936428680190362 15.895283594580592 0 0 0
1109 1052 3 0.1342949620253164 22.980043928545253 16.61221670109593 12.292186370325728 0 0 0
727 692 10 -0.1787800379746836 18.311288716889003 9.144031405113148 9.304165991221305 0 0 0
693 692 22 -0.0284400379746836 21.52661739206834 10.481833028739912 7.595129229567832 0 0 0
2012 1956 13 -0.1489440379746836 23.458834551354933 10.087297340381554 22.872491766196365 0 0 0
1398 1324 1 0.0544599620253164 19.83166470399447 15.181863208598633 20.979026606703897 0 -1 0
2024 1956 3 0.1342949620253164 17.38785145555402 9.081725046745058 23.827936335759112 0 0 0
1397 1324 1 0.0544599620253164 19.411843786889847 14.187833842875765 22.40510838731383 0 -1 0
1395 1324 12 -0.0578530379746836 19.3157982831377 15.155775892500383 21.9661309788237 0 -1 0
1078 1052 15 -0.0790760379746836 18.741857512330704 14.018360223951166 17.749849936600214 0 0 0
1388 1324 15 -0.0790760379746836 21.286997688394678 16.335329588960853 22.956915554768653 0 -1 0
1392 1324 3 0.1342949620253164 18.099042176926016 17.403806261615838 22.95256615843041 0 -1 0
1074 1052 18 -0.0340050379746836 21.556410878944106 14.096147983915937 17.587246231720613 0 0 0
1082 1052 12 -0.0578530379746836 18.827686797500427 12.076857210392136 19.43904242727568 0 0 0
2013 1956 3 0.1342949620253164 23.098594549539396 11.070507699115769 22.939075967066916 0 0 0
1077 1052 8 -0.1555560379746836 19.512118025321936 13.090540452472831 18.494845668301934 0 0 0
1083 1052 1 0.0544599620253164 17.726566118561937 12.010122984009548 19.2092662511544 0 0 0
1389 1324 3 0.1342949620253164 21.841120241743777 15.447037536811242 22.595122161971805 0 -1 0
1998 1956 1 0.0544599620253164 17.93568326901447 12.603168024945482 23.298192657939794 0 0 0
1068 1052 3 0.1342949620253164 23.183014627140192 13.586898397319793 19.8126880458997 0 0 0
1067 1052 13 -0.1489440379746836 23.68904695140695 13.868721206645375 18.892987325083077 0 0 0
1076 1052 3 0.1342949620253164 21.464764931979456 12.500377482796122 19.003408782341616 0 0 0
1075 1052 15 -0.0790760379746836 20.895132988371607 13.182856812423191 18.36607701092954 0 0 0
1390 1324 8 -0.1555560379746836 19.903477170584182 16.28819497982334 22.786084439403208 0 -1 0
1089 1052 1 0.0544599620253164 17.53980428155042 16.498840120574254 18.098065238344816 0 0 0
1396 1324 1 0.0544599620253164 18.188038217873256 15.29974444660086 21.780705735369736 0 -1 0
1985 1956 16 -0.0518930379746836 20.8897067437747 12.309694754129197 25.34802966254647 0 0 0
1069 1052 14 0.1183179620253164 23.02551325665675 14.155452054266538 17.726147615691442 0 0 0
1391 1324 15 -0.0790760379746836 19.136007852220224 17.373857192768334 23.220650388928977 0 -1 0
1990 1956 7 0.1123889620253164 18.517711654882607 11.385394803439604 25.055414966363735 0 0 0
1084 1052 1 0.0544599620253164 19.319023378788117 11.082637482688535 19.230218888159325 0 0 0
1996 1956 1 0.0544599620253164 16.778599600024382 12.619569422513822 24.81024527991476 0 0 0
1997 1956 1 0.0544599620253164 16.853705441763623 11.373828103521179 23.494290704124737 0 0 0
1085 1052 1 0.0544599620253164 19.02412357306505 12.247279794563237 20.49490730667233 0 0 0
1995 1956 10 -0.1787800379746836 17.48530028798575 12.039037748283555 24.159832276868638 0 0 0
2026 1956 16 -0.0518930379746836 20.59528758600664 10.207146070065336 24.15449430476896 0 0 0
1957 1956 22 -0.0284400379746836 21.38688796673725 11.254163102045982 24.686822001644092 0 0 0
1079 1052 3 0.1342949620253164 17.70827865892245 14.034869588173818 17.90044478632128 0 0 0
1387 1324 18 -0.0340050379746836 22.010262098648465 17.3726847721391 23.566029551623703 0 -1 0
2025 1956 11 0.0607159620253164 19.193216644401346 10.23360088244732 24.259911221429967 0 0 0
1381 1324 3 0.1342949620253164 23.780250044627454 15.907124135900284 21.91367100217465 0 -1 0
1382 1324 14 0.1183179620253164 23.532229354008226 17.32748034819444 23.600784218914523 0 -1 0
1984 1956 11 0.0607159620253164 19.49007876852856 12.434875610672716 25.530301138675778 0 0 0
2023 1956 15 -0.0790760379746836 18.442470170772975 9.157416095428378 23.776343880983834 0 0 0
2019 1956 18 -0.0340050379746836 21.279296274811244 9.05854331017273 23.54459840121725 0 0 0
2014 1956 14 0.1183179620253164 22.735954479136186 8.979478041361405 23.318501502776044 0 0 0
1081 1052 16 -0.0518930379746836 20.75916105947115 15.046199522241082 16.86729870148431 0 0 0
457 420 1 0.0544599620253164 17.438284569282526 9.458274563254298 17.746354658232956 0 0 0
1087 1052 10 -0.1787800379746836 17.984765617972148 17.117386629594716 17.30506570918733 0 0 0
1080 1052 11 0.0607159620253164 19.31994536994498 14.955371376520016 16.818126835860976 0 0 0
1974 1956 13 -0.1489440379746836 24.093394509301017 14.448011572123692 25.624414406064556 0 0 0
1975 1956 3 0.1342949620253164 23.573552681675064 15.451592060127211 25.61243159247944 0 0 0
1070 1052 13 -0.1489440379746836 23.74791848999165 14.558095795023807 16.57018018341492 0 0 0
1751 1684 15 -0.0790760379746836 18.73098058955987 9.18210581397493 31.46494364559176 0 0 0
1983 1956 3 0.1342949620253164 17.89564658707688 13.649739360864105 26.20651633275082 0 0 0