24
 energy: -43.214710650056 gnorm: 0.001897217400 xtb: 6.4.0 (d4b70c2)
C         0.72124164049408    0.54166025696595    0.35130028542119
C        -0.54400000000001    0.07859999999999    1.03890000000001
C         1.85227542050381   -0.50541507125934    0.57341280558573
C        -1.69679999999999   -0.21490000000000    0.24090000000003
C         3.01444192304515   -0.22024239898279   -0.39658393997041
C        -2.70328189053669   -1.15068480453469    0.69870763068830
O         1.17031059738392    1.80214126734716    0.79417981832937
O        -1.33090000000002    1.77620000000000    1.61619999999999
O         2.31295514520119   -0.40846554423424    1.89802767505557
O        -1.63647780445610   -0.05948814446573   -1.14392255858479
O         3.67975570899681    0.95900293733388   -0.02543424836392
O        -3.51815921022733   -1.64724362194478   -0.05935664492746
H         1.31762586804603    1.73379336801472    1.74900319457742
H        -0.92133722492654    2.53703472662613    1.19161077741883
H         3.11358643008377    0.14074615059946    1.87196301860158
H        -2.35964981929151   -0.61561181496676   -1.48417088600516
H         3.03967785344001    1.68838598934857   -0.05423308160868
H         0.51257517328398    0.65341540642378   -0.71718130980837
H        -0.46616844738757   -0.30873044187919    2.04288703027031
H         1.45690179609490   -1.51265825502194    0.41305472842924
H        -1.98470000000006    1.03449999999998    0.80069999999995
H         3.75736138568885   -1.01833486003527   -0.32367066696860
H         2.64176369040469   -0.17252149274877   -1.42676819604922
H        -2.69306634246714   -1.36940048185058    1.77823138029051
