24
 energy: -43.277287343120 gnorm: 0.002534066888 xtb: 6.4.0 (d4b70c2)
C         0.11964852979045    0.75478072931010    0.95083979438539
C        -1.30388493070145    0.08526350261892    0.92450519550046
C         1.12440000000000   -0.30780000000000    0.42820000000000
C        -1.74396394856383   -0.34405554527210   -0.52678094648986
C         2.42423317083899    0.15150229366806   -0.23966000571878
C        -0.64070000000000   -1.26170000000000   -1.16750000000000
O         0.09526555974276    1.89343083604677    0.11643269299308
O        -2.25563810065832    0.91968903533354    1.50156840783289
O         1.04370000000000   -1.47390000000000    1.01860000000000
O        -2.03418766855182    0.77963434977478   -1.30840735072325
O         2.84307622946572    1.41866893810217    0.21931564567493
O        -0.44760000000000   -2.38890000000000   -0.54710000000000
H         0.99496019508688    2.24936511942600    0.05688939629370
H        -2.43690875339693    1.64487750476794    0.88721867009095
H         0.34840000000000   -2.14090000000001    0.35020000000000
H        -1.32612329826761    1.43175477190387   -1.17918142121651
H         3.22182057187593    1.33279001952905    1.10065027779220
H         0.33589073847869    1.03414464429306    1.99148781841697
H        -1.25013578866579   -0.80444890925415    1.56022754220889
H         0.19010000000000   -0.40850000000001   -0.55459999999999
H        -2.67550126188507   -0.91171089305324   -0.42732402829976
H         3.18483507474027   -0.61751843801456   -0.07204956073301
H         2.28297044660816    0.26545147852148   -1.31847141026133
H        -0.47071022789523   -1.18595479682936   -2.23815483491079
