48
 energy: -65.742241966342 gnorm: 0.002021582109 xtb: 6.4.0 (d4b70c2)
Si        2.64049999999967    0.54179999999988   -0.23179999999925
C         3.50377353261081    1.31390533921803    1.28671519888787
H         3.17948791693710    0.83359389520676    2.20547953822324
H         3.28602735960527    2.37300148202631    1.37447558321551
H         4.57969747466751    1.20095127962845    1.22456032030863
C         3.51858516495886   -1.14536315797621   -0.55747548674373
H         4.54569104075235   -0.97455375700440   -0.86020834965597
H         3.04414404673282   -1.72722403084385   -1.34165532925157
H         3.53744777577911   -1.76331044772511    0.33379797302454
C         3.07258113404073    1.43848056187482   -1.86811054659728
O         1.35059999999973   -0.55809999999982    0.66939999999996
H         2.87984520727857    2.50242633319379   -1.80934703309454
H         2.51413729040765    1.04900816109996   -2.71297405296548
H         4.12613615964136    1.29593139113916   -2.08315532235280
C         0.27000000000019   -0.34600000000006    1.34039999999983
C        -0.63017152528350   -1.55979579941082    1.43275609030369
H        -0.00885840542582   -2.45449832974991    1.44476681029123
H        -1.23165854927149   -1.55560705039007    2.33830766847015
C        -0.43059999999972    0.86200000000025    1.35729999999987
C         0.06450000000012    1.86690000000023    0.50940000000018
O        -0.84954391143574    2.71653813636600   -0.04074908016174
C        -1.90385497604759    0.90068342970034    1.68661610638343
C        -1.96728634075876   -0.32043735221402   -0.49728340223254
C        -1.54946582874067   -1.63591398221167    0.14642956873699
C        -1.93641121422330   -0.28825007803056   -1.99969358351018
O         1.12129999999971    1.80609999999997   -0.20079999999943
C        -0.80194708285628   -2.47126813752749   -0.90125891237852
C        -2.47459749382467   -1.58342603716518   -2.59802665134029
H        -0.90041908391523   -0.14012698276826   -2.32085387888712
H        -2.51558229942128    0.55900526546909   -2.36821721137588
C        -1.63383304943333   -2.78336223289923   -2.14739710742881
H        -0.48867245737568   -3.41627733752467   -0.45410447937529
H         0.10423094283106   -1.92814722161161   -1.17586500219778
H        -2.47593475340155   -1.50973689437121   -3.68662744793131
H        -3.51078314213321   -1.70741889444910   -2.27721932800080
H        -2.29105977621476   -3.63122210359106   -1.94537376760427
H        -0.95203236490550   -3.08587836309029   -2.94417639692563
C        -2.46956390685755    2.24277706870404    2.17509341568619
C        -2.24239168462335    0.77559539052953    0.21781088293230
H        -2.22118344331523    0.08496985274234    2.32353188116694
C        -2.21324561794007    2.23159601685779   -0.17311866199530
C        -3.03736947112708    2.90846790912748    0.91396335418045
H        -4.09326304224019    2.67522831314102    0.77607586921593
H        -2.90348329342689    3.98791585042782    0.90478944079308
H        -1.68226907733984    2.85580347779319    2.61292849930811
H        -3.24086804001718    2.08918646128748    2.92834929510734
H        -2.50678292866833    2.47439977604809   -1.19476870759178
H        -2.45525073785018   -2.17452480726354    0.44935033832397
