12
 energy: -21.466999146014 gnorm: 0.001044792738 xtb: 6.4.0 (d4b70c2)
C        -0.67890577082401    0.53665737779158    0.17126124438276
C         0.76910000000000    0.19980000000000    0.34490000000000
C         1.75320000000000    0.34890000000000   -0.65750000000000
O        -1.28253851707653   -0.71047887774894   -0.14723754621502
O        -2.67628060395944   -0.53291342954095   -0.41069498733193
O         2.77330000000000   -0.40070000000000   -0.42600000000000
H        -2.91146797542363   -1.38392438754633   -0.80136844328850
H        -1.14588839237161    0.94698987436866    1.07549400037054
H        -0.82310264670026    1.23682931651603   -0.65964881767678
H         1.71080104484915    0.99636732439842   -1.52032919268604
H         1.89720000000000   -0.82560000000000    0.43800000000000
H         1.04852467128624   -0.15384017525665    1.33852578656963
