
                                 *****************
                                 * O   R   C   A *
                                 *****************

                                            #,                                       
                                            ###                                      
                                            ####                                     
                                            #####                                    
                                            ######                                   
                                           ########,                                 
                                     ,,################,,,,,                         
                               ,,#################################,,                 
                          ,,##########################################,,             
                       ,#########################################, ''#####,          
                    ,#############################################,,   '####,        
                  ,##################################################,,,,####,       
                ,###########''''           ''''###############################       
              ,#####''   ,,,,##########,,,,          '''####'''          '####       
            ,##' ,,,,###########################,,,                        '##       
           ' ,,###''''                  '''############,,,                           
         ,,##''                                '''############,,,,        ,,,,,,###''
      ,#''                                            '''#######################'''  
     '                                                          ''''####''''         
             ,#######,   #######,   ,#######,      ##                                
            ,#'     '#,  ##    ##  ,#'     '#,    #''#        ,####,   ,####,        
            ##       ##  ##   ,#'  ##            #'  '#       #'       #'  '#        
            ##       ##  #######   ##           ,######,      #####,   #    #        
            '#,     ,#'  ##    ##  '#,     ,#' ,#      #,     #,   #   #,  ,#        
             '#######'   ##     ##  '#######'  #'      '#     '####' # '####'        



                #########################################################
                #                        -***-                          #
                #          Department of theory and spectroscopy        #
                #                                                       #
                #                      Frank Neese                      #
                #                                                       #
                #     Directorship, Architecture, Infrastructure        #
                #                    SHARK, DRIVERS                     #
                #        Core code/Algorithms in most modules           #
                #                                                       #
                #        Max Planck Institute fuer Kohlenforschung      #
                #                Kaiser Wilhelm Platz 1                 #
                #                 D-45470 Muelheim/Ruhr                 #
                #                      Germany                          #
                #                                                       #
                #                  All rights reserved                  #
                #                        -***-                          #
                #########################################################


                         Program Version 6.0.1  -  RELEASE   -


 With contributions from (in alphabetic order):
[Max-Planck-Institut fuer Kohlenforschung]                               
  Daniel Aravena         : Magnetic Suceptibility                        
  Michael Atanasov       : Ab Initio Ligand Field Theory (pilot matlab implementation)
  Alexander A. Auer      : GIAO ZORA, VPT2 properties, NMR spectrum      
  Ute Becker             : All parallelization in ORCA, NUMFREQ, NUMCALC 
  Giovanni Bistoni       : ED, misc. LED, open-shell LED, HFLD           
  Martin Brehm           : Molecular dynamics                            
  Dmytro Bykov           : pre 5.0 version of the SCF Hessian            
  Marcos Casanova-Páez   : Triplet and SCS-CIS(D). UHF-(DLPNO)-IP/EA/STEOM-CCSD. UHF-CVS-IP/STEOM-CCSD   
  Vijay G. Chilkuri      : MRCI spin determinant printing, contributions to CSF-ICE 
  Pauline Colinet        : FMM embedding                                 
  Dipayan Datta          : RHF DLPNO-CCSD density                        
  Achintya Kumar Dutta   : EOM-CC, STEOM-CC                              
  Nicolas Foglia         : Exact transition moments, OPA infrastructure, MCD improvements    
  Dmitry Ganyushin       : Spin-Orbit,Spin-Spin,Magnetic field MRCI      
  Miquel Garcia-Rates    : C-PCM and meta-GGA Hessian, CCSD/C-PCM, Gaussian charge scheme 
  Tiago L. C. Gouveia    : GS-ROHF, GS-ROCIS                             
  Yang Guo               : DLPNO-NEVPT2, F12-NEVPT2, CIM, IAO-localization        
  Andreas Hansen         : Spin unrestricted coupled pair/coupled cluster methods 
  Ingolf Harden          : AUTO-CI MPn and infrastructure                
  Benjamin Helmich-Paris : MC-RPA, TRAH-(SCF,CASSCF), AVAS, COSX integrals, SCF dyn. polar. 
  Lee Huntington         : MR-EOM, pCC                                   
  Robert Izsak           : Overlap fitted RIJCOSX, COSX-SCS-MP3, EOM     
  Riya Kayal             : Wick's Theorem for AUTO-CI, AUTO-CI UHF-CCSDT 
  Emily Kempfer          : AUTO-CI, RHF CISDT and CCSDT                  
  Christian Kollmar      : KDIIS, OOCD, Brueckner-CCSD(T), CCSD density, CASPT2, CASPT2-K, improved NEVPT2 
  Axel Koslowski         : Symmetry handling                             
  Simone Kossmann        : meta-GGA functionals, TD-DFT gradient, OOMP2, (MP2 Hessian; deprecated post 5.0) 
  Lucas Lang             : DCDCAS                                        
  Marvin Lechner         : AUTO-CI (C++ implementation), FIC-MRCC        
  Spencer Leger          : CASSCF response                               
  Dagmar Lenk            : GEPOL surface, SMD, ORCA-2-JSON               
  Dimitrios Liakos       : Extrapolation schemes; Compound Job, initial MDCI parallelization 
  Dimitrios Manganas     : Further ROCIS development; embedding schemes. LFT, Crystal Embedding 
  Dimitrios Pantazis     : SARC Basis sets                               
  Anastasios Papadopoulos: AUTO-CI, single reference methods and gradients 
  Taras Petrenko         : pre 6.0 DFT Hessian and TD-DFT gradient, (ASA, deprecated), ECA, 1-Electron XAS/XES, NRVS 
  Peter Pinski           : DLPNO-MP2, DLPNO-MP2 Gradient                 
  Christoph Reimann      : Effective Core Potentials                     
  Marius Retegan         : Local ZFS, SOC                                
  Christoph Riplinger    : Optimizer, TS searches, QM/MM, DLPNO-CCSD(T), (RO)-DLPNO pert. Triples 
  Michael Roemelt        : Original ROCIS implementation                 
  Masaaki Saitow         : Open-shell DLPNO-CCSD energy and density      
  Barbara Sandhoefer     : DKH picture change effects                    
  Kantharuban Sivalingam : CASSCF convergence/infrastructure, NEVPT2 and variants, FIC-MRCI 
  Bernardo de Souza      : ESD, SOC TD-DFT                               
  Georgi L. Stoychev     : AutoAux, RI-MP2 NMR, DLPNO-MP2 response, X2C  
  Van Anh Tran           : RI-MP2 g-tensors                              
  Willem Van den Heuvel  : Paramagnetic NMR                              
  Zikuan Wang            : NOTCH, Electric field optimization            
  Frank Wennmohs         : Technical directorship and infrastructure     
  Hang Xu                : AUTO-CI-Response properties                   
                                                                         
[FACCTs GmbH]                                                            
  Markus Bursch, Miquel Garcia-Rates, Christoph Riplinger, Bernardo de Souza, Georgi L. Stoychev 
                                                                 
  APM, Basis sets (HGBS, AHGBS, def-TZVP (Ac-Lr), def2-XVPD (La-Lu)), CI-OPT, improved COSX, DLPNO-Multilevel,           
  DOCKER, DRACO, updates on ESD, GOAT, IRC, LR-CPCM, MBIS, meta-GGA TD-DFT gradient, ML-optimized integration grids, 
  MM, NACMEs, nearIR, NEB, NEB-TS, NL-DFT gradient (VV10), 2- and 3-layer-ONIOM, interface openCOSMO-RS, QMMM,   
  Crystal-QMMM, SF, symmetry and pop. for TD-DFT, r2SCAN hybrids, SOLVATOR                                   
                                                                         
[Other institutions]                                                     
  V. Asgeirsson          : NEB                                           
  Christoph Bannwarth    : sTDA-DFT, sTD-DFT, PBEh-3c, B97-3c, D3        
  Sebastian Ehlert       : rSCAN, r2SCAN, r2SCAN-3c, D4, dhf basis sets  
  Marvin Friede          : D4 for Fr, Ra, Ac-Lr                          
  Lars Goerigk           : TD-DFT with DH, B97 family of functionals     
  Stefan Grimme          : VdW corrections, initial TS optimization, DFT functionals, gCP, sTDA/sTD-DF 
  Waldemar Hujo          : DFT-NL                                        
  H. Jonsson             : NEB                                           
  Holger Kruse           : gCP                                           
  Marcel Mueller         : wB97X-3c, vDZP basis set                      
  Hagen Neugebauer       : wr2SCAN                                       
  Tobias Risthaus        : range-separated hybrid DFT                    
  Lukas Wittmann         : regularized MP2, r2SCAN double-hybrids, wr2SCAN        
                                                                         
We gratefully acknowledge several colleagues who have allowed us to      
interface, adapt or use parts of their codes:                            
  Ed Valeev, F. Pavosevic, A. Kumar             : LibInt (2-el integral package), F12 methods 
  Garnet Chan, S. Sharma, J. Yang, R. Olivares  : DMRG                   
  Ulf Ekstrom                                   : XCFun DFT Library      
  Mihaly Kallay                                 : mrcc  (arbitrary order and MRCC methods)
  Frank Weinhold                                : gennbo (NPA and NBO analysis)           
  Simon Mueller                                 : openCOSMO-RS                            
  Christopher J. Cramer and Donald G. Truhlar   : smd solvation model                     
  S Lehtola, MJT Oliveira, MAL Marques          : LibXC Library                           
  Liviu Ungur et al                             : ANISO software                          


 Your calculation uses the libint2 library for the computation of 2-el integrals
 For citations please refer to: http://libint.valeyev.net

 Your ORCA version has been built with support for libXC version: 6.2.2
 For citations please refer to: https://libxc.gitlab.io

 This ORCA versions uses:
   CBLAS   interface :  Fast vector & matrix operations
   LAPACKE interface :  Fast linear algebra routines
   SCALAPACK package :  Parallel linear algebra routines
   Shared memory     :  Shared parallel matrices
   BLAS/LAPACK       :  OpenBLAS 0.3.27  USE64BITINT DYNAMIC_ARCH NO_AFFINITY Zen SINGLE_THREADED
        Core in use  :  Zen
   Copyright (c) 2011-2014, The OpenBLAS Project




***************************************
The coordinates will be read from file: /temp180/bsavoie2/emille35/mlip_alchemy/sn1_scans/ch3cl_h2o/scan_to_0.5/uwb97mv-tzvpd/orca.allxyz
***************************************


****
**** There are 9 structures found in the file
****
Your calculation utilizes the DFT-NL dispersion correction.
Cite in your paper:
Vydrov, O. A.; Van Voorhis, T. J. Chem. Phys. 2010, 133, 244103
Hujo, W.; Grimme, S. J. Chem. Theory Comput. 2011, 7, 3866 
   

Warning: RI is on but no J-basis has been assigned. Assigning Def2/J (nothing to worry about!)
================================================================================

----- Orbital basis set information -----
Your calculation utilizes the basis: def2-TZVPD
   F. Weigend and R. Ahlrichs, Phys. Chem. Chem. Phys. 7, 3297 (2005).
   D. Rappoport and F. Furche, J. Chem. Phys. 133, 134105 (2010)
   D. Rappoport, J. Chem. Phys. 155, 124102 (2021).

----- AuxJ basis set information -----
Your calculation utilizes the auxiliary basis: def2/J
   F. Weigend, Phys. Chem. Chem. Phys. 8, 1057 (2006).

================================================================================
                                        WARNINGS
                       Please study these warnings very carefully!
================================================================================


WARNING: B97M-V or wB97M-V functional requested.
  ===> : libXC variant has now been activated.
         Any manually given DFX/HFX/RangeSep scaling parameters are IGNORED!


================================================================================
                                       INPUT FILE
================================================================================
NAME = orca.inp
|  1> ! RKS wB97M-V def2-TZVPD PAL2
|  2> 
|  3> * xyzfile 0 1 /temp180/bsavoie2/emille35/mlip_alchemy/sn1_scans/ch3cl_h2o/scan_to_0.5/uwb97mv-tzvpd/orca.allxyz
|  4> 
|  5>                          ****END OF INPUT****
================================================================================

                      *********************************
                      * Multiple XYZ Scan Calculation *
                      *********************************

Multiple XYZ scan settings:
    -> SCF surface will be mapped

There are 9 structures to be calculated

         *************************************************************
                               MULTIPLE XYZ STEP   1
         *************************************************************
---------------------------------
CARTESIAN COORDINATES (ANGSTROEM)
---------------------------------
  C      0.711922    0.087908    0.047735
  Cl     1.535835   -0.073975    1.525896
  H      1.428320    0.179214   -0.764633
  H      0.083647    0.974455    0.071429
  H      0.086392   -0.784539   -0.122448
  O      3.945212    0.427442   -0.697164
  H      3.668859    0.269853    0.213790
  H      4.788904   -0.024378   -0.786925

----------------------------
CARTESIAN COORDINATES (A.U.)
----------------------------
  NO LB      ZA    FRAG     MASS         X           Y           Z
   0 C     6.0000    0    12.011    1.345338    0.166122    0.090206
   1 Cl   17.0000    0    35.453    2.902308   -0.139792    2.883526
   2 H     1.0000    0     1.008    2.699134    0.338665   -1.444947
   3 H     1.0000    0     1.008    0.158070    1.841453    0.134981
   4 H     1.0000    0     1.008    0.163257   -1.482564   -0.231393
   5 O     8.0000    0    15.999    7.455370    0.807748   -1.317449
   6 H     1.0000    0     1.008    6.933139    0.509948    0.404005
   7 H     1.0000    0     1.008    9.049717   -0.046068   -1.487073

--------------------------------
INTERNAL COORDINATES (ANGSTROEM)
--------------------------------
 C      0   0   0     0.000000000000     0.00000000     0.00000000
 Cl     1   0   0     1.699999611523     0.00000000     0.00000000
 H      1   2   0     1.086970398614   109.78040435     0.00000000
 H      1   2   3     1.086856229899   109.80878078   239.94098775
 H      1   2   3     1.086928609522   109.79318760   120.11985520
 O      3   1   2     2.530002874625   130.08874737   352.60463309
 H      6   3   1     0.964905416943    73.99223864     6.62270332
 H      6   3   1     0.961256750502   145.54206799   100.35326546

---------------------------
INTERNAL COORDINATES (A.U.)
---------------------------
 C      0   0   0     0.000000000000     0.00000000     0.00000000
 Cl     1   0   0     3.212533693551     0.00000000     0.00000000
 H      1   2   0     2.054076369060   109.78040435     0.00000000
 H      1   2   3     2.053860621455   109.80878078   239.94098775
 H      1   2   3     2.053997399121   109.79318760   120.11985520
 O      3   1   2     4.781012551074   130.08874737   352.60463309
 H      6   3   1     1.823406983159    73.99223864     6.62270332
 H      6   3   1     1.816512002831   145.54206799   100.35326546

---------------------
BASIS SET INFORMATION
---------------------
There are 4 groups of distinct atoms

 Group   1 Type C   : 12s6p3d1f contracted to 6s3p3d1f pattern {621111/411/111/1}
 Group   2 Type Cl  : 15s10p4d1f contracted to 6s6p3d1f pattern {732111/511111/211/1}
 Group   3 Type H   : 5s2p contracted to 3s2p pattern {311/11}
 Group   4 Type O   : 12s7p3d1f contracted to 6s4p3d1f pattern {621111/4111/111/1}

Atom   0C    basis set group =>   1
Atom   1Cl   basis set group =>   2
Atom   2H    basis set group =>   3
Atom   3H    basis set group =>   3
Atom   4H    basis set group =>   3
Atom   5O    basis set group =>   4
Atom   6H    basis set group =>   3
Atom   7H    basis set group =>   3
---------------------------------
AUXILIARY/J BASIS SET INFORMATION
---------------------------------
There are 4 groups of distinct atoms

 Group   1 Type C   : 12s5p4d2f1g contracted to 6s4p3d1f1g pattern {711111/2111/211/2/1}
 Group   2 Type Cl  : 14s5p5d2f1g contracted to 8s4p3d1f1g pattern {71111111/2111/311/2/1}
 Group   3 Type H   : 5s2p1d contracted to 3s1p1d pattern {311/2/1}
 Group   4 Type O   : 12s5p4d2f1g contracted to 6s4p3d1f1g pattern {711111/2111/211/2/1}

Atom   0C    basis set group =>   1
Atom   1Cl   basis set group =>   2
Atom   2H    basis set group =>   3
Atom   3H    basis set group =>   3
Atom   4H    basis set group =>   3
Atom   5O    basis set group =>   4
Atom   6H    basis set group =>   3
Atom   7H    basis set group =>   3


           ************************************************************
           *        Program running with 2 parallel MPI-processes     *
           *              working on a common directory               *
           ************************************************************
------------------------------------------------------------------------------
                             ORCA STARTUP CALCULATIONS
                           -- RI-GTO INTEGRALS CHOSEN --
------------------------------------------------------------------------------
------------------------------------------------------------------------------
                   ___                                                        
                  /   \      - P O W E R E D   B Y -                         
                 /     \                                                     
                 |  |  |   _    _      __       _____    __    __             
                 |  |  |  | |  | |    /  \     |  _  \  |  |  /  |          
                  \  \/   | |  | |   /    \    | | | |  |  | /  /          
                 / \  \   | |__| |  /  /\  \   | |_| |  |  |/  /          
                |  |  |   |  __  | /  /__\  \  |    /   |      \           
                |  |  |   | |  | | |   __   |  |    \   |  |\   \          
                \     /   | |  | | |  |  |  |  | |\  \  |  | \   \       
                 \___/    |_|  |_| |__|  |__|  |_| \__\ |__|  \__/        
                                                                              
                      - O R C A' S   B I G   F R I E N D -                    
                                      &                                       
                       - I N T E G R A L  F E E D E R -                       
                                                                              
 v1 FN, 2020, v2 2021, v3 2022-2024                                           
------------------------------------------------------------------------------


----------------------
SHARK INTEGRAL PACKAGE
----------------------

Number of atoms                             ...      8
Number of basis functions                   ...    168
Number of shells                            ...     68
Maximum angular momentum                    ...      3
Integral batch strategy                     ... SHARK/LIBINT Hybrid
RI-J (if used) integral strategy            ... SPLIT-RIJ (Revised 2003 algorithm where possible)
Printlevel                                  ...      1
Contraction scheme used                     ... SEGMENTED contraction
Prescreening option                         ... SCHWARTZ
   Thresh                                   ... 1.000e-10
   Tcut                                     ... 1.000e-11
   Tpresel                                  ... 1.000e-11 
Coulomb Range Separation                    ... NOT USED
Exchange Range Separation                   ... Long Range
   Mu parameter                             ... 3.000e-01
   Scaling (regular/separated)              ... 1.500e-01 8.500e-01
Multipole approximations                    ... NOT USED
Finite Nucleus Model                        ... NOT USED
CABS basis                                  ... NOT available
Auxiliary Coulomb fitting basis             ... AVAILABLE
   # of basis functions in Aux-J            ...    204
   # of shells in Aux-J                     ...     72
   Maximum angular momentum in Aux-J        ...      4
Auxiliary J/K fitting basis                 ... NOT available
Auxiliary Correlation fitting basis         ... NOT available
Auxiliary 'external' fitting basis          ... NOT available

Checking pre-screening integrals            ... done (  0.0 sec) Dimension = 68
Check shell pair data                       ... done (  0.0 sec)
Shell pair information
Shell pair cut-off parameter TPreSel        ...   1.0e-11
Total number of shell pairs                 ...      2346
Shell pairs after pre-screening             ...      2238
Total number of primitive shell pairs       ...      6200
Primitive shell pairs kept                  ...      4916
          la=0 lb=0:    524 shell pairs
          la=1 lb=0:    723 shell pairs
          la=1 lb=1:    268 shell pairs
          la=2 lb=0:    284 shell pairs
          la=2 lb=1:    203 shell pairs
          la=2 lb=2:     45 shell pairs
          la=3 lb=0:     91 shell pairs
          la=3 lb=1:     67 shell pairs
          la=3 lb=2:     27 shell pairs
          la=3 lb=3:      6 shell pairs

Calculating one electron integrals          ... done (  0.0 sec)
Calculating RI/J V-Matrix + Cholesky decomp.... done (  0.1 sec)
Calculating Nuclear repulsion               ... done (  0.0 sec) ENN=    103.858913143215 Eh

Diagonalization of the overlap matrix:
Smallest eigenvalue                        ... 2.417e-05
Time for diagonalization                   ...    0.007 sec
Threshold for overlap eigenvalues          ... 1.000e-07
Number of eigenvalues below threshold      ... 0
Time for construction of square roots      ...    0.043 sec
Total time needed                          ...    0.105 sec

-------------------
DFT GRID GENERATION
-------------------

General Integration Accuracy     IntAcc      ... 4.388
Radial Grid Type                 RadialGrid  ... OptM3 with GC (2021)
Angular Grid (max. ang.)         AngularGrid ... 4 (Lebedev-302)
Angular grid pruning method      GridPruning ... 4 (adaptive)
Weight generation scheme         WeightScheme... mBecke (2022)
Basis function cutoff            BFCut       ... 1.0000e-10
Integration weight cutoff        WCut        ... 1.0000e-14
Partially contracted basis set               ... off
Rotationally invariant grid construction     ... off
Angular grids for H and He will be reduced by one unit
Diffuse basis detected: some atoms will have their outermost
                        angular grid increased by 1.

Total number of grid points                  ...    37959
Total number of batches                      ...      598
Average number of points per batch           ...       63
Average number of grid points per atom       ...     4745

--------------------
COSX GRID GENERATION
--------------------

GRIDX 1
-------
General Integration Accuracy     IntAcc      ... 3.816
Radial Grid Type                 RadialGrid  ... OptM3 with GC (2021)
Angular Grid (max. ang.)         AngularGrid ... 1 (Lebedev-50)
Angular grid pruning method      GridPruning ... 4 (adaptive)
Weight generation scheme         WeightScheme... mBecke (2022)
Basis function cutoff            BFCut       ... 1.0000e-10
Integration weight cutoff        WCut        ... 1.0000e-14
Partially contracted basis set               ... on
Rotationally invariant grid construction     ... off
Angular grids for H and He will be reduced by one unit
Diffuse basis detected: some atoms will have their outermost
                        angular grid increased by 1.

Total number of grid points                  ...     5988
Total number of batches                      ...       51
Average number of points per batch           ...      117
Average number of grid points per atom       ...      748
UseSFitting                                  ... on

GRIDX 2
-------
General Integration Accuracy     IntAcc      ... 4.020
Radial Grid Type                 RadialGrid  ... OptM3 with GC (2021)
Angular Grid (max. ang.)         AngularGrid ... 2 (Lebedev-110)
Angular grid pruning method      GridPruning ... 4 (adaptive)
Weight generation scheme         WeightScheme... mBecke (2022)
Basis function cutoff            BFCut       ... 1.0000e-10
Integration weight cutoff        WCut        ... 1.0000e-14
Partially contracted basis set               ... on
Rotationally invariant grid construction     ... off
Angular grids for H and He will be reduced by one unit
Diffuse basis detected: some atoms will have their outermost
                        angular grid increased by 1.

Total number of grid points                  ...    11141
Total number of batches                      ...       91
Average number of points per batch           ...      122
Average number of grid points per atom       ...     1393
UseSFitting                                  ... on

GRIDX 3
-------
General Integration Accuracy     IntAcc      ... 4.338
Radial Grid Type                 RadialGrid  ... OptM3 with GC (2021)
Angular Grid (max. ang.)         AngularGrid ... 3 (Lebedev-194)
Angular grid pruning method      GridPruning ... 4 (adaptive)
Weight generation scheme         WeightScheme... mBecke (2022)
Basis function cutoff            BFCut       ... 1.0000e-10
Integration weight cutoff        WCut        ... 1.0000e-14
Partially contracted basis set               ... on
Rotationally invariant grid construction     ... off
Angular grids for H and He will be reduced by one unit
Diffuse basis detected: some atoms will have their outermost
                        angular grid increased by 1.

Total number of grid points                  ...    26015
Total number of batches                      ...      208
Average number of points per batch           ...      125
Average number of grid points per atom       ...     3252
UseSFitting                                  ... on
Initializing property integral containers    ... done (  0.2 sec)

SHARK setup successfully completed in   2.8 seconds

Maximum memory used throughout the entire STARTUP-calculation: 16.8 MB


           ************************************************************
           *        Program running with 2 parallel MPI-processes     *
           *              working on a common directory               *
           ************************************************************
-------------------------------------------------------------------------------
                                 ORCA GUESS
                   Start orbitals & Density for SCF / CASSCF
-------------------------------------------------------------------------------

------------
SCF SETTINGS
------------
Hamiltonian:
 Density Functional     Method          .... DFT(GTOs)
  Functional kind                       .... Exchange-Correlation
  Functional name                       .... wB97M-V exchange-correlation functional
  Functional family                     .... Hybrid MGGA
  Functional refs                              
    [ 0] N. Mardirossian and M. Head-Gordon.,  J. Chem. Phys. 144, 214110 (2016), doi: 10.1063/1.4952647
  Fraction of HF Exchange (short range) .... 0.1500
  Fraction of HF Exchange (long range)  .... 1.0000
  Range separation parameter mu         .... 0.3000
  Functional external parameters        .... 17
    Parameter  0 _cx00      =  8.500000e-01 : u^00 coefficient for exchange
    Parameter  1 _cx01      =  1.007000e+00 : u^01 coefficient for exchange
    Parameter  2 _cx10      =  2.590000e-01 : u^10 coefficient for exchange
    Parameter  3 _css00     =  4.430000e-01 : u^00 coefficient for same-spin correlation
    Parameter  4 _css04     = -1.437000e+00 : u^04 coefficient for same-spin correlation
    Parameter  5 _css10     = -4.535000e+00 : u^10 coefficient for same-spin correlation
    Parameter  6 _css20     = -3.390000e+00 : u^20 coefficient for same-spin correlation
    Parameter  7 _css43     =  4.278000e+00 : u^43 coefficient for same-spin correlation
    Parameter  8 _cos00     =  1.000000e+00 : u^00 coefficient for opposite-spin correlation
    Parameter  9 _cos10     =  1.358000e+00 : u^10 coefficient for opposite-spin correlation
    Parameter 10 _cos20     =  2.924000e+00 : u^20 coefficient for opposite-spin correlation
    Parameter 11 _cos21     = -8.812000e+00 : u^21 coefficient for opposite-spin correlation
    Parameter 12 _cos60     = -1.390000e+00 : u^60 coefficient for opposite-spin correlation
    Parameter 13 _cos61     =  9.142000e+00 : u^61 coefficient for opposite-spin correlation
    Parameter 14 _alpha     =  1.000000e+00 : fraction of HF exchange
    Parameter 15 _beta      = -8.500000e-01 : fraction of short-range exchange
    Parameter 16 _omega     =  3.000000e-01 : range-separation constant
 Long-range corrected/Screened/Range-Separated Hybrid DFT is turned on
   Amount of maximum screened exact exchange              ....  0.850000
   Range separation parameter mu (erf(mu*r12)/r12)        ....  0.300000
   NL short-range parameter             ....  6.000000
   NL long-range parameter              ....  0.010000
 RI-approximation to the Coulomb term is turned on
   Number of AuxJ basis functions       .... 204
   RIJ-COSX (HFX calculated with COS-X)).... on


General Settings:
 Integral files         IntName         .... orca
 Hartree-Fock type      HFTyp           .... RHF
 Total Charge           Charge          ....    0
 Multiplicity           Mult            ....    1
 Number of Electrons    NEL             ....   36
 Basis Dimension        Dim             ....  168
 Nuclear Repulsion      ENuc            ....    103.8589131432 Eh

Convergence Acceleration:
 AO-DIIS                CNVDIIS         .... on
   Start iteration      DIISMaxIt       ....    12
   Startup error        DIISStart       ....  0.200000
   # of expansion vecs  DIISMaxEq       ....     5
   Bias factor          DIISBfac        ....   1.050
   Max. coefficient     DIISMaxC        ....  10.000
 MO-DIIS                CNVKDIIS        .... off
 Trust-Rad. Augm. Hess. CNVTRAH         .... auto
   Auto Start mean grad. ratio tolernc. ....  1.125000
   Auto Start start iteration           ....    50
   Auto Start num. interpolation iter.  ....    10
   Max. Number of Micro iterations      ....    24
   Max. Number of Macro iterations      .... Maxiter - #DIIS iter
   Number of Davidson start vectors     ....     2
   Converg. threshold    (grad. norm)   ....   5.000e-05
   Grad. Scal. Fac. for Micro threshold ....   0.100
   Minimum threshold for Micro iter.    ....   1.000e-02
   NR start threshold (gradient norm)   ....   1.000e-04
   Initial trust radius                 ....   0.400
   Minimum AH scaling param. (alpha)    ....   1.000
   Maximum AH scaling param. (alpha)    .... 1000.000
   Quad. conv. algorithm                .... NR
   White noise on init. David. guess    .... on
   Maximum white noise                  ....   0.010
   Pseudo random numbers                .... off
   Inactive MOs                         .... canonical
   Orbital update algorithm             .... Taylor
   Preconditioner                       .... Diag
   Full preconditioner red. dimension   ....   250
 SOSCF                  CNVSOSCF        .... on
   Start iteration      SOSCFMaxIt      ....   150
   Startup grad/error   SOSCFStart      ....  0.003300
   Hessian update       SOSCFHessUp     .... L-BFGS
 Level Shifting         CNVShift        .... on
   Level shift para.    LevelShift      ....    0.2500
   Turn off err/grad.   ShiftErr        ....    0.0010
 Zerner damping         CNVZerner       .... off
 Static damping         CNVDamp         .... on
   Fraction old density DampFac         ....    0.7000
   Max. Damping (<1)    DampMax         ....    0.9800
   Min. Damping (>=0)   DampMin         ....    0.0000
   Turn off err/grad.   DampErr         ....    0.1000

SCF Procedure:
 Maximum # iterations   MaxIter         ....   125
 SCF integral mode      SCFMode         .... Direct
   Integral package                     .... SHARK and LIBINT hybrid scheme
 Reset frequency        DirectResetFreq ....    20
 Integral Threshold     Thresh          ....  1.000e-10 Eh
 Primitive CutOff       TCut            ....  1.000e-11 Eh

Convergence Tolerance:
 Convergence Check Mode ConvCheckMode   .... Total+1el-Energy
 Convergence forced     ConvForced      .... 0
 Energy Change          TolE            ....  1.000e-06 Eh
 1-El. energy change                    ....  1.000e-03 Eh
 Orbital Gradient       TolG            ....  5.000e-05
 Orbital Rotation angle TolX            ....  5.000e-05
 DIIS Error             TolErr          ....  1.000e-06

------------------------------
INITIAL GUESS: MODEL POTENTIAL
------------------------------
Loading Hartree-Fock densities                     ... done
Calculating cut-offs                               ... done
Initializing the effective Hamiltonian             ... done
Setting up the integral package (SHARK)            ... done
Starting the Coulomb interaction                   ... done (   0.2 sec)
Making the grid                                    ... done (   0.5 sec)
Mapping shells                                     ... done
Starting the XC term evaluation                    ... done (   0.1 sec)
  promolecular density results
     # of electrons  =     35.996981513
     EX              =    -42.120529742
     EC              =     -1.267077168
     EX+EC           =    -43.387606911
Transforming the Hamiltonian                       ... done (   0.2 sec)
Diagonalizing the Hamiltonian                      ... done (   0.6 sec)
Back transforming the eigenvectors                 ... done (   0.0 sec)
Now organizing SCF variables                       ... done
                      ------------------
                      INITIAL GUESS DONE (   2.0 sec)
                      ------------------
             **** ENERGY FILE WAS UPDATED (orca.en.tmp) ****
Finished Guess after   2.7 sec
Maximum memory used throughout the entire GUESS-calculation: 11.2 MB


           ************************************************************
           *        Program running with 2 parallel MPI-processes     *
           *              working on a common directory               *
           ************************************************************

-------------------------------------------------------------------------------------------
                                      ORCA LEAN-SCF
                              memory conserving SCF solver
-------------------------------------------------------------------------------------------

----------------------------------------D-I-I-S--------------------------------------------
Iteration    Energy (Eh)           Delta-E    RMSDP     MaxDP     DIISErr   Damp  Time(sec)
-------------------------------------------------------------------------------------------
               ***  Starting incremental Fock matrix formation  ***
    1    -576.5315415854308867     0.00e+00  1.64e-03  4.56e-02  3.25e-01  0.700   5.7
    2    -576.5924279108348856    -6.09e-02  1.27e-03  3.46e-02  1.58e-01  0.700   5.2
                               ***Turning on AO-DIIS***
    3    -576.6191578874374954    -2.67e-02  8.16e-04  2.82e-02  5.62e-02  0.700   5.1
    4    -576.6350776994761418    -1.59e-02  1.91e-03  6.60e-02  3.47e-02  0.000   4.6
                              *** Initializing SOSCF ***
---------------------------------------S-O-S-C-F--------------------------------------
Iteration    Energy (Eh)           Delta-E    RMSDP     MaxDP     MaxGrad    Time(sec)
--------------------------------------------------------------------------------------
    5    -576.6699525735166389    -3.49e-02  1.79e-04  7.04e-03  3.13e-03     5.2
               *** Restarting incremental Fock matrix formation ***
    6    -576.6699971513274932    -4.46e-05  6.64e-05  1.43e-03  4.53e-04     6.1
    7    -576.6700006542274650    -3.50e-06  2.40e-05  5.26e-04  4.35e-04     5.3
    8    -576.6700030209823353    -2.37e-06  6.11e-06  1.63e-04  7.39e-05     5.1
    9    -576.6700030483802948    -2.74e-08  2.44e-06  1.17e-04  2.22e-05     4.1
                 **** Energy Check signals convergence ****

               *****************************************************
               *                     SUCCESS                       *
               *           SCF CONVERGED AFTER   9 CYCLES          *
               *****************************************************


------------------
NL GRID GENERATION
------------------

General Integration Accuracy     IntAcc      ... 4.004
Radial Grid Type                 RadialGrid  ... OptM3 with GC (2021)
Angular Grid (max. ang.)         AngularGrid ... 2 (Lebedev-110)
Angular grid pruning method      GridPruning ... 4 (adaptive)
Weight generation scheme         WeightScheme... mBecke (2022)
Basis function cutoff            BFCut       ... 1.0000e-10
Integration weight cutoff        WCut        ... 1.0000e-14
Partially contracted basis set               ... off
Rotationally invariant grid construction     ... off
Angular grids for H and He will be reduced by one unit
Diffuse basis detected: some atoms will have their outermost
                        angular grid increased by 1.

Total number of grid points                  ...    12547
Total number of batches                      ...      200
Average number of points per batch           ...       62
Average number of grid points per atom       ...     1568
Final grid set up in    0.3 sec

-------------------------------------------------------------------------------
                    post-SCF DFT-NL dispersion correction                      
-------------------------------------------------------------------------------

SCF Energy:     -576.670003048 
NL    Energy:      0.148033360 
SC+NL Energy:   -576.521969689 
NL done in  :              1.0 sec
-------------------------------------------------------------------------------
Recomputing exchange energy using gridx3       ... done (    7.316 sec)
Old exchange energy                            :    -11.267599289 Eh
New exchange energy                            :    -11.267599648 Eh
Exchange energy change after final integration :     -0.000000359 Eh
Total energy after final integration           :   -576.521970048 Eh
             **** ENERGY FILE WAS UPDATED (orca.en.tmp) ****

----------------
TOTAL SCF ENERGY
----------------

Total Energy       :       -576.52197004805453 Eh          -15687.96037 eV

Components:
Nuclear Repulsion  :        103.85891314321546 Eh            2826.14471 eV
Electronic Energy  :       -680.52891619159573 Eh          -18518.13325 eV
One Electron Energy:       -999.81877338807362 Eh          -27206.45197 eV
Two Electron Energy:        319.28985719647790 Eh            8688.31872 eV

Virial components:
Potential Energy   :      -1152.09443850591697 Eh          -31350.08348 eV
Kinetic Energy     :        575.57246845786233 Eh           15662.12311 eV
Virial Ratio       :          2.00164966471162

DFT components:
N(Alpha)           :       17.999990811276 electrons
N(Beta)            :       17.999990811276 electrons
N(Total)           :       35.999981622552 electrons
NL Energy, E(C,NL) :        0.148033359739 Eh       
E(XC)              :      -32.808132562413 Eh       

---------------
SCF CONVERGENCE
---------------

  Last Energy change         ...    2.7398e-08  Tolerance :   1.0000e-06
  Last MAX-Density change    ...    1.1668e-04  Tolerance :   1.0000e-05
  Last RMS-Density change    ...    2.4399e-06  Tolerance :   1.0000e-06
  Last DIIS Error            ...    3.1297e-03  Tolerance :   1.0000e-06
  Last Orbital Gradient      ...    2.2192e-05  Tolerance :   5.0000e-05
  Last Orbital Rotation      ...    1.7929e-05  Tolerance :   5.0000e-05


----------------
ORBITAL ENERGIES
----------------

  NO   OCC          E(Eh)            E(eV) 
   0   2.0000    -101.874393     -2772.1432 
   1   2.0000     -19.336099      -526.1620 
   2   2.0000     -10.391004      -282.7536 
   3   2.0000      -9.648128      -262.5389 
   4   2.0000      -7.352396      -200.0689 
   5   2.0000      -7.344611      -199.8570 
   6   2.0000      -7.344536      -199.8550 
   7   2.0000      -1.140916       -31.0459 
   8   2.0000      -1.003689       -27.3118 
   9   2.0000      -0.793842       -21.6015 
  10   2.0000      -0.644217       -17.5300 
  11   2.0000      -0.562726       -15.3125 
  12   2.0000      -0.559950       -15.2370 
  13   2.0000      -0.531595       -14.4654 
  14   2.0000      -0.503740       -13.7075 
  15   2.0000      -0.426972       -11.6185 
  16   2.0000      -0.404556       -11.0085 
  17   2.0000      -0.403307       -10.9746 
  18   0.0000       0.032198         0.8761 
  19   0.0000       0.045824         1.2469 
  20   0.0000       0.047021         1.2795 
  21   0.0000       0.061135         1.6636 
  22   0.0000       0.083649         2.2762 
  23   0.0000       0.101092         2.7509 
  24   0.0000       0.106118         2.8876 
  25   0.0000       0.117271         3.1911 
  26   0.0000       0.139140         3.7862 
  27   0.0000       0.144188         3.9236 
  28   0.0000       0.160951         4.3797 
*Only the first 10 virtual orbitals were printed.

                    ********************************
                    * MULLIKEN POPULATION ANALYSIS *
                    ********************************

-----------------------
MULLIKEN ATOMIC CHARGES
-----------------------
   0 C :   -0.472282
   1 Cl:   -0.216040
   2 H :    0.232146
   3 H :    0.224989
   4 H :    0.226368
   5 O :   -0.609138
   6 H :    0.306360
   7 H :    0.307597
Sum of atomic charges:   -0.0000000

--------------------------------
MULLIKEN REDUCED ORBITAL CHARGES
--------------------------------
  0 C s       :     3.268756  s :     3.268756
      pz      :     0.862883  p :     3.114461
      px      :     1.072468
      py      :     1.179111
      dz2     :     0.027626  d :     0.085392
      dxz     :     0.027409
      dyz     :     0.001785
      dx2y2   :    -0.004120
      dxy     :     0.032692
      f0      :     0.000880  f :     0.003672
      f+1     :     0.001314
      f-1     :     0.000254
      f+2     :     0.000233
      f-2     :     0.000540
      f+3     :     0.000445
      f-3     :     0.000006

  1 Cls       :     5.945845  s :     5.945845
      pz      :     3.425686  p :    11.205364
      px      :     3.809409
      py      :     3.970269
      dz2     :     0.018352  d :     0.058673
      dxz     :     0.019592
      dyz     :     0.012844
      dx2y2   :     0.003759
      dxy     :     0.004126
      f0      :     0.001549  f :     0.006158
      f+1     :     0.002103
      f-1     :     0.000661
      f+2     :     0.000790
      f-2     :     0.000844
      f+3     :     0.000077
      f-3     :     0.000134

  2 H s       :     0.743443  s :     0.743443
      pz      :     0.024685  p :     0.024410
      px      :     0.007771
      py      :    -0.008046

  3 H s       :     0.724710  s :     0.724710
      pz      :     0.011879  p :     0.050301
      px      :     0.019602
      py      :     0.018819

  4 H s       :     0.723858  s :     0.723858
      pz      :     0.012471  p :     0.049774
      px      :     0.021241
      py      :     0.016061

  5 O s       :     3.771019  s :     3.771019
      pz      :     1.486226  p :     4.810423
      px      :     1.509032
      py      :     1.815165
      dz2     :     0.009516  d :     0.026357
      dxz     :     0.001695
      dyz     :     0.003963
      dx2y2   :     0.004187
      dxy     :     0.006997
      f0      :     0.000232  f :     0.001340
      f+1     :     0.000309
      f-1     :     0.000123
      f+2     :     0.000068
      f-2     :     0.000046
      f+3     :     0.000084
      f-3     :     0.000476

  6 H s       :     0.651579  s :     0.651579
      pz      :     0.026965  p :     0.042061
      px      :    -0.003625
      py      :     0.018722

  7 H s       :     0.628026  s :     0.628026
      pz      :     0.016551  p :     0.064377
      px      :     0.025382
      py      :     0.022443



                     *******************************
                     * LOEWDIN POPULATION ANALYSIS *
                     *******************************

----------------------
LOEWDIN ATOMIC CHARGES
----------------------
   0 C :   -0.570360
   1 Cl:    0.554939
   2 H :    0.019777
   3 H :    0.034823
   4 H :    0.033479
   5 O :   -0.079970
   6 H :   -0.028301
   7 H :    0.035613

-------------------------------
LOEWDIN REDUCED ORBITAL CHARGES
-------------------------------
  0 C s       :     2.818666  s :     2.818666
      pz      :     0.954574  p :     3.001680
      px      :     1.007227
      py      :     1.039879
      dz2     :     0.217164  d :     0.713732
      dxz     :     0.197672
      dyz     :     0.132863
      dx2y2   :     0.047289
      dxy     :     0.118744
      f0      :     0.006659  f :     0.036282
      f+1     :     0.007984
      f-1     :     0.007109
      f+2     :     0.006420
      f-2     :     0.003401
      f+3     :     0.003951
      f-3     :     0.000757

  1 Cls       :     5.412138  s :     5.412138
      pz      :     3.380198  p :    10.721078
      px      :     3.594922
      py      :     3.745958
      dz2     :     0.091849  d :     0.296700
      dxz     :     0.093266
      dyz     :     0.062921
      dx2y2   :     0.020614
      dxy     :     0.028050
      f0      :     0.004130  f :     0.015146
      f+1     :     0.004083
      f-1     :     0.002106
      f+2     :     0.002054
      f-2     :     0.002259
      f+3     :     0.000211
      f-3     :     0.000303

  2 H s       :     0.707785  s :     0.707785
      pz      :     0.099548  p :     0.272438
      px      :     0.108642
      py      :     0.064249

  3 H s       :     0.725446  s :     0.725446
      pz      :     0.058365  p :     0.239731
      px      :     0.080877
      py      :     0.100489

  4 H s       :     0.725903  s :     0.725903
      pz      :     0.061655  p :     0.240618
      px      :     0.081608
      py      :     0.097355

  5 O s       :     3.382171  s :     3.382171
      pz      :     1.467344  p :     4.627318
      px      :     1.461996
      py      :     1.697979
      dz2     :     0.027534  d :     0.068072
      dxz     :     0.010699
      dyz     :     0.003560
      dx2y2   :     0.013389
      dxy     :     0.012890
      f0      :     0.000560  f :     0.002408
      f+1     :     0.000647
      f-1     :     0.000296
      f+2     :     0.000040
      f-2     :     0.000044
      f+3     :     0.000009
      f-3     :     0.000813

  6 H s       :     0.609749  s :     0.609749
      pz      :     0.187907  p :     0.418551
      px      :     0.122063
      py      :     0.108581

  7 H s       :     0.619593  s :     0.619593
      pz      :     0.079392  p :     0.344794
      px      :     0.144403
      py      :     0.120999



                      *****************************
                      * MAYER POPULATION ANALYSIS *
                      *****************************

  NA   - Mulliken gross atomic population
  ZA   - Total nuclear charge
  QA   - Mulliken gross atomic charge
  VA   - Mayer's total valence
  BVA  - Mayer's bonded valence
  FA   - Mayer's free valence

  ATOM       NA         ZA         QA         VA         BVA        FA
  0 C      6.4723     6.0000    -0.4723     3.6850     3.6850    -0.0000
  1 Cl    17.2160    17.0000    -0.2160     0.9307     0.9307     0.0000
  2 H      0.7679     1.0000     0.2321     0.9692     0.9692    -0.0000
  3 H      0.7750     1.0000     0.2250     1.0455     1.0455    -0.0000
  4 H      0.7736     1.0000     0.2264     1.0435     1.0435    -0.0000
  5 O      8.6091     8.0000    -0.6091     1.8180     1.8180    -0.0000
  6 H      0.6936     1.0000     0.3064     0.9526     0.9526    -0.0000
  7 H      0.6924     1.0000     0.3076     0.9447     0.9447     0.0000

  Mayer bond orders larger than 0.100000
B(  0-C ,  1-Cl) :   0.7847 B(  0-C ,  2-H ) :   0.9229 B(  0-C ,  3-H ) :   0.9770 
B(  0-C ,  4-H ) :   0.9779 B(  5-O ,  6-H ) :   0.8922 B(  5-O ,  7-H ) :   0.9285 


-------
TIMINGS
-------

Total SCF time: 0 days 0 hours 0 min 57 sec 

Total time                  ....      57.113 sec
Sum of individual times     ....      56.538 sec  ( 99.0%)

SCF preparation             ....       1.332 sec  (  2.3%)
Fock matrix formation       ....      45.885 sec  ( 80.3%)
  Startup                   ....       0.906 sec  (  2.0% of F)
  Split-RI-J                ....       4.242 sec  (  9.2% of F)
  Chain of spheres X        ....      31.603 sec  ( 68.9% of F)
  XC integration            ....       8.621 sec  ( 18.8% of F)
    XC Preparation          ....       0.000 sec  (  0.0% of XC)
    Basis function eval.    ....       0.890 sec  ( 10.3% of XC)
    Density eval.           ....       2.216 sec  ( 25.7% of XC)
    XC-Functional eval.     ....       1.204 sec  ( 14.0% of XC)
    XC-Potential eval.      ....       2.960 sec  ( 34.3% of XC)
Diagonalization             ....       0.000 sec  (  0.0%)
Density matrix formation    ....       1.161 sec  (  2.0%)
Total Energy calculation    ....       0.943 sec  (  1.7%)
Population analysis         ....       0.318 sec  (  0.6%)
Orbital Transformation      ....       1.366 sec  (  2.4%)
Orbital Orthonormalization  ....       0.000 sec  (  0.0%)
DIIS solution               ....       3.712 sec  (  6.5%)
SOSCF solution              ....       1.545 sec  (  2.7%)
Grid generation             ....       0.277 sec  (  0.5%)
Finished LeanSCF after  57.4 sec

Maximum memory used throughout the entire LEANSCF-calculation: 15.0 MB

-------------------------   --------------------
FINAL SINGLE POINT ENERGY      -576.521970048055
-------------------------   --------------------



           ************************************************************
           *        Program running with 2 parallel MPI-processes     *
           *              working on a common directory               *
           ************************************************************

------------------------------------------------------------------------------
                              ORCA PROPERTY CALCULATIONS
------------------------------------------------------------------------------

GBWName                                 ... orca.gbw
Number of atoms                         ...      8
Number of basis functions               ...    168
Max core memory                         ...   1024 MB

Electric properties:
Dipole moment                           ... YES
Quadrupole moment                       ...  NO
Static polarizability (Dipole/Dipole)   ...  NO
Static polarizability (Dipole/Quad.)    ...  NO
Static polarizability (Quad./Quad.)     ...  NO
Static polarizability (Velocity)        ...  NO

Atomic electric properties:
Dipole moment                           ...  NO
Quadrupole moment                       ...  NO
Static polarizability                   ...  NO

Choice of electric origin               ... Center of mass
Position of electric origin             ...     3.758787     0.162520     1.161844

General magnetic properties:
Magnetizability                         ...  NO

EPR properties:
g-Tensor (aka g-matrix)                 ...  NO
Zero-Field splitting spin-orbit         ...  NO
Zero-field splitting spin-spin          ...  NO
Hyperfine couplings                     ...  NO (   0 nuclei)
Quadrupole couplings                    ...  NO (   0 nuclei)
Contact density                         ...  NO (   0 nuclei)

NMR properties:
Chemical shifts                         ...  NO (   0 nuclei)
Spin-rotation constants                 ...  NO (   0 nuclei)
Spin-spin couplings                     ...  NO (   0 nuclei,    0 pairs)

Choice of magnetic origin               ... GIAO
Position of magnetic origin             ...     0.000000     0.000000     0.000000

Properties with geometric perturbations:
SCF Hessian                             ...  NO
IR spectrum                             ...  NO
VCD spectrum                            ...  NO
X-ray spectroscopy properties:
SCF XES/XAS/RIXS spectra                ...  NO


-------------
DIPOLE MOMENT
-------------

Method             : SCF
Type of density    : Electron Density
Multiplicity       :   1
Irrep              :   0
Energy             :  -576.5219700480545271 Eh
Relativity type    : 
Basis              : AO
                                X                 Y                 Z
Electronic contribution:     -0.797832077      -0.710122636       5.331265838
Nuclear contribution   :      0.741208237       0.392954718      -5.429236428
                        -----------------------------------------
Total Dipole Moment    :     -0.056623840      -0.317167918      -0.097970590
                        -----------------------------------------
Magnitude (a.u.)       :      0.336749141
Magnitude (Debye)      :      0.855948294



--------------------
Rotational spectrum 
--------------------
 
Rotational constants in cm-1:             0.472465             0.118106             0.096459 
Rotational constants in MHz :         14164.132987          3540.718353          2891.769216 

Dipole components along the rotational axes: 
x,y,z [a.u.] :     0.033461    -0.083917     0.324404 
x,y,z [Debye]:     0.085050    -0.213301     0.824571 

 

Dipole moment calculation done in   0.2 sec 

Maximum memory used throughout the entire PROP-calculation: 8.3 MB

         *************************************************************
                               MULTIPLE XYZ STEP   2
         *************************************************************
---------------------------------
CARTESIAN COORDINATES (ANGSTROEM)
---------------------------------
  C      0.724580    0.082698    0.089830
  Cl     1.490544   -0.069232    1.475906
  H      1.415739    0.175241   -0.748531
  H      0.083260    0.964981    0.071279
  H      0.083359   -0.774850   -0.119221
  O      3.959451    0.428836   -0.699761
  H      3.689466    0.271272    0.212668
  H      4.802691   -0.022965   -0.794490

----------------------------
CARTESIAN COORDINATES (A.U.)
----------------------------
  NO LB      ZA    FRAG     MASS         X           Y           Z
   0 C     6.0000    0    12.011    1.369258    0.156277    0.169754
   1 Cl   17.0000    0    35.453    2.816720   -0.130830    2.789058
   2 H     1.0000    0     1.008    2.675359    0.331157   -1.414519
   3 H     1.0000    0     1.008    0.157339    1.823550    0.134698
   4 H     1.0000    0     1.008    0.157526   -1.464254   -0.225295
   5 O     8.0000    0    15.999    7.482278    0.810383   -1.322357
   6 H     1.0000    0     1.008    6.972080    0.512630    0.401884
   7 H     1.0000    0     1.008    9.075771   -0.043398   -1.501369

--------------------------------
INTERNAL COORDINATES (ANGSTROEM)
--------------------------------
 C      0   0   0     0.000000000000     0.00000000     0.00000000
 Cl     1   0   0     1.590908624646     0.00000000     0.00000000
 H      1   2   0     1.090465100978   111.88642767     0.00000000
 H      1   2   3     1.090898150191   112.03024799   239.95085283
 H      1   2   3     1.090988205136   112.01548387   120.11676121
 O      3   1   2     2.556786982889   128.63315115   352.63627070
 H      6   3   1     0.964492091394    73.93955420     6.48081845
 H      6   3   1     0.961327948539   145.50562438   100.05963662

---------------------------
INTERNAL COORDINATES (A.U.)
---------------------------
 C      0   0   0     0.000000000000     0.00000000     0.00000000
 Cl     1   0   0     3.006381604674     0.00000000     0.00000000
 H      1   2   0     2.060680399447   111.88642767     0.00000000
 H      1   2   3     2.061498743862   112.03024799   239.95085283
 H      1   2   3     2.061668923045   112.01548387   120.11676121
 O      3   1   2     4.831627180434   128.63315115   352.63627070
 H      6   3   1     1.822625911068    73.93955420     6.48081845
 H      6   3   1     1.816646547623   145.50562438   100.05963662



           ************************************************************
           *        Program running with 2 parallel MPI-processes     *
           *              working on a common directory               *
           ************************************************************
------------------------------------------------------------------------------
                   ___                                                        
                  /   \      - P O W E R E D   B Y -                         
                 /     \                                                     
                 |  |  |   _    _      __       _____    __    __             
                 |  |  |  | |  | |    /  \     |  _  \  |  |  /  |          
                  \  \/   | |  | |   /    \    | | | |  |  | /  /          
                 / \  \   | |__| |  /  /\  \   | |_| |  |  |/  /          
                |  |  |   |  __  | /  /__\  \  |    /   |      \           
                |  |  |   | |  | | |   __   |  |    \   |  |\   \          
                \     /   | |  | | |  |  |  |  | |\  \  |  | \   \       
                 \___/    |_|  |_| |__|  |__|  |_| \__\ |__|  \__/        
                                                                              
                      - O R C A' S   B I G   F R I E N D -                    
                                      &                                       
                       - I N T E G R A L  F E E D E R -                       
                                                                              
 v1 FN, 2020, v2 2021, v3 2022-2024                                           
------------------------------------------------------------------------------


----------------------
SHARK INTEGRAL PACKAGE
----------------------

Number of atoms                             ...      8
Number of basis functions                   ...    168
Number of shells                            ...     68
Maximum angular momentum                    ...      3
Integral batch strategy                     ... SHARK/LIBINT Hybrid
RI-J (if used) integral strategy            ... SPLIT-RIJ (Revised 2003 algorithm where possible)
Printlevel                                  ...      1
Contraction scheme used                     ... SEGMENTED contraction
Prescreening option                         ... SCHWARTZ
   Thresh                                   ... 1.000e-10
   Tcut                                     ... 1.000e-11
   Tpresel                                  ... 1.000e-11 
Coulomb Range Separation                    ... NOT USED
Exchange Range Separation                   ... Long Range
   Mu parameter                             ... 3.000e-01
   Scaling (regular/separated)              ... 1.500e-01 8.500e-01
Multipole approximations                    ... NOT USED
Finite Nucleus Model                        ... NOT USED
CABS basis                                  ... NOT available
Auxiliary Coulomb fitting basis             ... AVAILABLE
   # of basis functions in Aux-J            ...    204
   # of shells in Aux-J                     ...     72
   Maximum angular momentum in Aux-J        ...      4
Auxiliary J/K fitting basis                 ... NOT available
Auxiliary Correlation fitting basis         ... NOT available
Auxiliary 'external' fitting basis          ... NOT available

Checking pre-screening integrals            ... done (  0.0 sec) Dimension = 68
Check shell pair data                       ... done (  0.0 sec)
Shell pair information
Shell pair cut-off parameter TPreSel        ...   1.0e-11
Total number of shell pairs                 ...      2346
Shell pairs after pre-screening             ...      2239
Total number of primitive shell pairs       ...      6200
Primitive shell pairs kept                  ...      4924
          la=0 lb=0:    525 shell pairs
          la=1 lb=0:    723 shell pairs
          la=1 lb=1:    268 shell pairs
          la=2 lb=0:    284 shell pairs
          la=2 lb=1:    203 shell pairs
          la=2 lb=2:     45 shell pairs
          la=3 lb=0:     91 shell pairs
          la=3 lb=1:     67 shell pairs
          la=3 lb=2:     27 shell pairs
          la=3 lb=3:      6 shell pairs

Calculating one electron integrals          ... done (  0.0 sec)
Calculating RI/J V-Matrix + Cholesky decomp.... done (  0.1 sec)
Calculating Nuclear repulsion               ... done (  0.0 sec) ENN=    106.168227355080 Eh

Diagonalization of the overlap matrix:
Smallest eigenvalue                        ... 2.373e-05
Time for diagonalization                   ...    0.027 sec
Threshold for overlap eigenvalues          ... 1.000e-07
Number of eigenvalues below threshold      ... 0
Time for construction of square roots      ...    0.090 sec
Total time needed                          ...    0.162 sec

-------------------
DFT GRID GENERATION
-------------------

General Integration Accuracy     IntAcc      ... 4.388
Radial Grid Type                 RadialGrid  ... OptM3 with GC (2021)
Angular Grid (max. ang.)         AngularGrid ... 4 (Lebedev-302)
Angular grid pruning method      GridPruning ... 4 (adaptive)
Weight generation scheme         WeightScheme... mBecke (2022)
Basis function cutoff            BFCut       ... 1.0000e-10
Integration weight cutoff        WCut        ... 1.0000e-14
Partially contracted basis set               ... off
Rotationally invariant grid construction     ... off
Angular grids for H and He will be reduced by one unit
Diffuse basis detected: some atoms will have their outermost
                        angular grid increased by 1.

Total number of grid points                  ...    37950
Total number of batches                      ...      597
Average number of points per batch           ...       63
Average number of grid points per atom       ...     4744

--------------------
COSX GRID GENERATION
--------------------

GRIDX 1
-------
General Integration Accuracy     IntAcc      ... 3.816
Radial Grid Type                 RadialGrid  ... OptM3 with GC (2021)
Angular Grid (max. ang.)         AngularGrid ... 1 (Lebedev-50)
Angular grid pruning method      GridPruning ... 4 (adaptive)
Weight generation scheme         WeightScheme... mBecke (2022)
Basis function cutoff            BFCut       ... 1.0000e-10
Integration weight cutoff        WCut        ... 1.0000e-14
Partially contracted basis set               ... on
Rotationally invariant grid construction     ... off
Angular grids for H and He will be reduced by one unit
Diffuse basis detected: some atoms will have their outermost
                        angular grid increased by 1.

Total number of grid points                  ...     5988
Total number of batches                      ...       51
Average number of points per batch           ...      117
Average number of grid points per atom       ...      748
UseSFitting                                  ... on

GRIDX 2
-------
General Integration Accuracy     IntAcc      ... 4.020
Radial Grid Type                 RadialGrid  ... OptM3 with GC (2021)
Angular Grid (max. ang.)         AngularGrid ... 2 (Lebedev-110)
Angular grid pruning method      GridPruning ... 4 (adaptive)
Weight generation scheme         WeightScheme... mBecke (2022)
Basis function cutoff            BFCut       ... 1.0000e-10
Integration weight cutoff        WCut        ... 1.0000e-14
Partially contracted basis set               ... on
Rotationally invariant grid construction     ... off
Angular grids for H and He will be reduced by one unit
Diffuse basis detected: some atoms will have their outermost
                        angular grid increased by 1.

Total number of grid points                  ...    11145
Total number of batches                      ...       91
Average number of points per batch           ...      122
Average number of grid points per atom       ...     1393
UseSFitting                                  ... on

GRIDX 3
-------
General Integration Accuracy     IntAcc      ... 4.338
Radial Grid Type                 RadialGrid  ... OptM3 with GC (2021)
Angular Grid (max. ang.)         AngularGrid ... 3 (Lebedev-194)
Angular grid pruning method      GridPruning ... 4 (adaptive)
Weight generation scheme         WeightScheme... mBecke (2022)
Basis function cutoff            BFCut       ... 1.0000e-10
Integration weight cutoff        WCut        ... 1.0000e-14
Partially contracted basis set               ... on
Rotationally invariant grid construction     ... off
Angular grids for H and He will be reduced by one unit
Diffuse basis detected: some atoms will have their outermost
                        angular grid increased by 1.

Total number of grid points                  ...    26016
Total number of batches                      ...      207
Average number of points per batch           ...      125
Average number of grid points per atom       ...     3252
UseSFitting                                  ... on
Initializing property integral containers    ... done (  0.1 sec)

SHARK setup successfully completed in   3.0 seconds

Maximum memory used throughout the entire STARTUP-calculation: 17.0 MB


           ************************************************************
           *        Program running with 2 parallel MPI-processes     *
           *              working on a common directory               *
           ************************************************************
Occupation numbers will be reassigned to an Aufbau configuration
             **** ENERGY FILE WAS UPDATED (orca.en.tmp) ****
Finished Guess after   1.3 sec
Maximum memory used throughout the entire GUESS-calculation: 11.5 MB


           ************************************************************
           *        Program running with 2 parallel MPI-processes     *
           *              working on a common directory               *
           ************************************************************
----------------------------------------D-I-I-S--------------------------------------------
Iteration    Energy (Eh)           Delta-E    RMSDP     MaxDP     DIISErr   Damp  Time(sec)
-------------------------------------------------------------------------------------------
               ***  Starting incremental Fock matrix formation  ***
    1    -576.6498772209197341     0.00e+00  2.55e-04  6.62e-03  2.31e-02  0.700   5.1
    2    -576.6508630337352770    -9.86e-04  2.07e-04  4.84e-03  1.68e-02  0.700   3.9
                               ***Turning on AO-DIIS***
    3    -576.6516195440935917    -7.57e-04  1.68e-04  4.13e-03  1.21e-02  0.700   4.8
    4    -576.6521852267512713    -5.66e-04  4.44e-04  1.03e-02  9.14e-03  0.000   5.0
                              *** Initializing SOSCF ***
---------------------------------------S-O-S-C-F--------------------------------------
Iteration    Energy (Eh)           Delta-E    RMSDP     MaxDP     MaxGrad    Time(sec)
--------------------------------------------------------------------------------------
    5    -576.6537134504085316    -1.53e-03  5.80e-05  1.16e-03  1.30e-03     4.8
               *** Restarting incremental Fock matrix formation ***
    6    -576.6537243087168463    -1.09e-05  3.97e-05  8.25e-04  2.12e-04     6.0
    7    -576.6537260679508563    -1.76e-06  2.05e-05  4.79e-04  1.42e-04     4.9
    8    -576.6537263874106429    -3.19e-07  4.76e-06  1.05e-04  4.68e-05     4.2
                 **** Energy Check signals convergence ****

               *****************************************************
               *                     SUCCESS                       *
               *           SCF CONVERGED AFTER   8 CYCLES          *
               *****************************************************


------------------
NL GRID GENERATION
------------------

General Integration Accuracy     IntAcc      ... 4.004
Radial Grid Type                 RadialGrid  ... OptM3 with GC (2021)
Angular Grid (max. ang.)         AngularGrid ... 2 (Lebedev-110)
Angular grid pruning method      GridPruning ... 4 (adaptive)
Weight generation scheme         WeightScheme... mBecke (2022)
Basis function cutoff            BFCut       ... 1.0000e-10
Integration weight cutoff        WCut        ... 1.0000e-14
Partially contracted basis set               ... off
Rotationally invariant grid construction     ... off
Angular grids for H and He will be reduced by one unit
Diffuse basis detected: some atoms will have their outermost
                        angular grid increased by 1.

Total number of grid points                  ...    12544
Total number of batches                      ...      200
Average number of points per batch           ...       62
Average number of grid points per atom       ...     1568
Final grid set up in    0.4 sec

-------------------------------------------------------------------------------
                    post-SCF DFT-NL dispersion correction                      
-------------------------------------------------------------------------------

SCF Energy:     -576.653726387 
NL    Energy:      0.147936844 
SC+NL Energy:   -576.505789543 
NL done in  :              1.0 sec
-------------------------------------------------------------------------------
Recomputing exchange energy using gridx3       ... done (    7.494 sec)
Old exchange energy                            :    -11.276894077 Eh
New exchange energy                            :    -11.276898281 Eh
Exchange energy change after final integration :     -0.000004204 Eh
Total energy after final integration           :   -576.505793748 Eh
             **** ENERGY FILE WAS UPDATED (orca.en.tmp) ****

----------------
TOTAL SCF ENERGY
----------------

Total Energy       :       -576.50579374780250 Eh          -15687.52019 eV

Components:
Nuclear Repulsion  :        106.16822735508021 Eh            2888.98434 eV
Electronic Energy  :       -682.82195374249090 Eh          -18580.52998 eV
One Electron Energy:      -1004.31846824717786 Eh          -27328.89490 eV
Two Electron Energy:        321.49651450468696 Eh            8748.36492 eV

Virial components:
Potential Energy   :      -1152.30088972451085 Eh          -31355.70130 eV
Kinetic Energy     :        575.79509597670824 Eh           15668.18112 eV
Virial Ratio       :          2.00123428937839

DFT components:
N(Alpha)           :       18.000008690816 electrons
N(Beta)            :       18.000008690816 electrons
N(Total)           :       36.000017381633 electrons
NL Energy, E(C,NL) :        0.147936844075 Eh       
E(XC)              :      -32.845542687850 Eh       

---------------
SCF CONVERGENCE
---------------

  Last Energy change         ...    3.1946e-07  Tolerance :   1.0000e-06
  Last MAX-Density change    ...    1.0500e-04  Tolerance :   1.0000e-05
  Last RMS-Density change    ...    4.7644e-06  Tolerance :   1.0000e-06
  Last DIIS Error            ...    1.2955e-03  Tolerance :   1.0000e-06
  Last Orbital Gradient      ...    4.6827e-05  Tolerance :   5.0000e-05
  Last Orbital Rotation      ...    5.3296e-05  Tolerance :   5.0000e-05


Total SCF time: 0 days 0 hours 0 min 49 sec 
Finished LeanSCF after  49.4 sec

Maximum memory used throughout the entire LEANSCF-calculation: 15.2 MB

-------------------------   --------------------
FINAL SINGLE POINT ENERGY      -576.505793747802
-------------------------   --------------------



           ************************************************************
           *        Program running with 2 parallel MPI-processes     *
           *              working on a common directory               *
           ************************************************************

------------------------------------------------------------------------------
                              ORCA PROPERTY CALCULATIONS
------------------------------------------------------------------------------

GBWName                                 ... orca.gbw
Number of atoms                         ...      8
Number of basis functions               ...    168
Max core memory                         ...   1024 MB

Electric properties:
Dipole moment                           ... YES
Quadrupole moment                       ...  NO
Static polarizability (Dipole/Dipole)   ...  NO
Static polarizability (Dipole/Quad.)    ...  NO
Static polarizability (Quad./Quad.)     ...  NO
Static polarizability (Velocity)        ...  NO

Atomic electric properties:
Dipole moment                           ...  NO
Quadrupole moment                       ...  NO
Static polarizability                   ...  NO

Choice of electric origin               ... Center of mass
Position of electric origin             ...     3.725482     0.166022     1.126047

General magnetic properties:
Magnetizability                         ...  NO

EPR properties:
g-Tensor (aka g-matrix)                 ...  NO
Zero-Field splitting spin-orbit         ...  NO
Zero-field splitting spin-spin          ...  NO
Hyperfine couplings                     ...  NO (   0 nuclei)
Quadrupole couplings                    ...  NO (   0 nuclei)
Contact density                         ...  NO (   0 nuclei)

NMR properties:
Chemical shifts                         ...  NO (   0 nuclei)
Spin-rotation constants                 ...  NO (   0 nuclei)
Spin-spin couplings                     ...  NO (   0 nuclei,    0 pairs)

Choice of magnetic origin               ... GIAO
Position of magnetic origin             ...     0.000000     0.000000     0.000000

Properties with geometric perturbations:
SCF Hessian                             ...  NO
IR spectrum                             ...  NO
VCD spectrum                            ...  NO
X-ray spectroscopy properties:
SCF XES/XAS/RIXS spectra                ...  NO


-------------
DIPOLE MOMENT
-------------

Method             : SCF
Type of density    : Electron Density
Multiplicity       :   1
Irrep              :   0
Energy             :  -576.5057937478024996 Eh
Relativity type    : 
Basis              : AO
                                X                 Y                 Z
Electronic contribution:     -0.877847053      -0.703798131       5.259755003
Nuclear contribution   :      0.878743279       0.379507532      -5.288619775
                        -----------------------------------------
Total Dipole Moment    :      0.000896227      -0.324290599      -0.028864772
                        -----------------------------------------
Magnitude (a.u.)       :      0.325573910
Magnitude (Debye)      :      0.827543114



--------------------
Rotational spectrum 
--------------------
 
Rotational constants in cm-1:             0.524737             0.116471             0.097284 
Rotational constants in MHz :         15731.207314          3491.698311          2916.513900 

Dipole components along the rotational axes: 
x,y,z [a.u.] :     0.024994     0.006467     0.324549 
x,y,z [Debye]:     0.063530     0.016438     0.824937 

 

Dipole moment calculation done in   0.1 sec 

Maximum memory used throughout the entire PROP-calculation: 8.4 MB

         *************************************************************
                               MULTIPLE XYZ STEP   3
         *************************************************************
---------------------------------
CARTESIAN COORDINATES (ANGSTROEM)
---------------------------------
  C      0.737620    0.077666    0.127612
  Cl     1.471930   -0.062709    1.407014
  H      1.384492    0.170618   -0.752074
  H      0.082538    0.955895    0.077801
  H      0.076490   -0.765564   -0.106929
  O      3.971987    0.429630   -0.693016
  H      3.709237    0.272039    0.221420
  H      4.814797   -0.021594   -0.794147

----------------------------
CARTESIAN COORDINATES (A.U.)
----------------------------
  NO LB      ZA    FRAG     MASS         X           Y           Z
   0 C     6.0000    0    12.011    1.393900    0.146767    0.241152
   1 Cl   17.0000    0    35.453    2.781545   -0.118503    2.658871
   2 H     1.0000    0     1.008    2.616311    0.322421   -1.421214
   3 H     1.0000    0     1.008    0.155974    1.806380    0.147023
   4 H     1.0000    0     1.008    0.144545   -1.446706   -0.202067
   5 O     8.0000    0    15.999    7.505968    0.811883   -1.309610
   6 H     1.0000    0     1.008    7.009442    0.514079    0.418423
   7 H     1.0000    0     1.008    9.098648   -0.040807   -1.500720

--------------------------------
INTERNAL COORDINATES (ANGSTROEM)
--------------------------------
 C      0   0   0     0.000000000000     0.00000000     0.00000000
 Cl     1   0   0     1.481818408014     0.00000000     0.00000000
 H      1   2   0     1.095869936299   114.11684656     0.00000000
 H      1   2   3     1.096767860072   114.27081322   239.99018320
 H      1   2   3     1.096877017027   114.23480787   120.07387284
 O      3   1   2     2.601096968306   125.26894693   352.64625309
 H      6   3   1     0.964399131002    74.58741614     6.28036687
 H      6   3   1     0.961332030797   145.38605963   100.80309154

---------------------------
INTERNAL COORDINATES (A.U.)
---------------------------
 C      0   0   0     0.000000000000     0.00000000     0.00000000
 Cl     1   0   0     2.800230971350     0.00000000     0.00000000
 H      1   2   0     2.070894058003   114.11684656     0.00000000
 H      1   2   3     2.072590888022   114.27081322   239.99018320
 H      1   2   3     2.072797164773   114.23480787   120.07387284
 O      3   1   2     4.915360917872   125.26894693   352.64625309
 H      6   3   1     1.822450241385    74.58741614     6.28036687
 H      6   3   1     1.816654261973   145.38605963   100.80309154



           ************************************************************
           *        Program running with 2 parallel MPI-processes     *
           *              working on a common directory               *
           ************************************************************
------------------------------------------------------------------------------
                   ___                                                        
                  /   \      - P O W E R E D   B Y -                         
                 /     \                                                     
                 |  |  |   _    _      __       _____    __    __             
                 |  |  |  | |  | |    /  \     |  _  \  |  |  /  |          
[...]
Rotationally invariant grid construction     ... off
Angular grids for H and He will be reduced by one unit
Diffuse basis detected: some atoms will have their outermost
                        angular grid increased by 1.

Total number of grid points                  ...    37851
Total number of batches                      ...      595
Average number of points per batch           ...       63
Average number of grid points per atom       ...     4731

--------------------
COSX GRID GENERATION
--------------------

GRIDX 1
-------
General Integration Accuracy     IntAcc      ... 3.816
Radial Grid Type                 RadialGrid  ... OptM3 with GC (2021)
Angular Grid (max. ang.)         AngularGrid ... 1 (Lebedev-50)
Angular grid pruning method      GridPruning ... 4 (adaptive)
Weight generation scheme         WeightScheme... mBecke (2022)
Basis function cutoff            BFCut       ... 1.0000e-10
Integration weight cutoff        WCut        ... 1.0000e-14
Partially contracted basis set               ... on
Rotationally invariant grid construction     ... off
Angular grids for H and He will be reduced by one unit
Diffuse basis detected: some atoms will have their outermost
                        angular grid increased by 1.

Total number of grid points                  ...     5971
Total number of batches                      ...       51
Average number of points per batch           ...      117
Average number of grid points per atom       ...      746
UseSFitting                                  ... on

GRIDX 2
-------
General Integration Accuracy     IntAcc      ... 4.020
Radial Grid Type                 RadialGrid  ... OptM3 with GC (2021)
Angular Grid (max. ang.)         AngularGrid ... 2 (Lebedev-110)
Angular grid pruning method      GridPruning ... 4 (adaptive)
Weight generation scheme         WeightScheme... mBecke (2022)
Basis function cutoff            BFCut       ... 1.0000e-10
Integration weight cutoff        WCut        ... 1.0000e-14
Partially contracted basis set               ... on
Rotationally invariant grid construction     ... off
Angular grids for H and He will be reduced by one unit
Diffuse basis detected: some atoms will have their outermost
                        angular grid increased by 1.

Total number of grid points                  ...    11087
Total number of batches                      ...       91
Average number of points per batch           ...      121
Average number of grid points per atom       ...     1386
UseSFitting                                  ... on

GRIDX 3
-------
General Integration Accuracy     IntAcc      ... 4.338
Radial Grid Type                 RadialGrid  ... OptM3 with GC (2021)
Angular Grid (max. ang.)         AngularGrid ... 3 (Lebedev-194)
Angular grid pruning method      GridPruning ... 4 (adaptive)
Weight generation scheme         WeightScheme... mBecke (2022)
Basis function cutoff            BFCut       ... 1.0000e-10
Integration weight cutoff        WCut        ... 1.0000e-14
Partially contracted basis set               ... on
Rotationally invariant grid construction     ... off
Angular grids for H and He will be reduced by one unit
Diffuse basis detected: some atoms will have their outermost
                        angular grid increased by 1.

Total number of grid points                  ...    25826
Total number of batches                      ...      204
Average number of points per batch           ...      126
Average number of grid points per atom       ...     3228
UseSFitting                                  ... on
Initializing property integral containers    ... done (  0.2 sec)

SHARK setup successfully completed in   3.1 seconds

Maximum memory used throughout the entire STARTUP-calculation: 17.1 MB


           ************************************************************
           *        Program running with 2 parallel MPI-processes     *
           *              working on a common directory               *
           ************************************************************
Occupation numbers will be reassigned to an Aufbau configuration
             **** ENERGY FILE WAS UPDATED (orca.en.tmp) ****
Finished Guess after   1.1 sec
Maximum memory used throughout the entire GUESS-calculation: 11.6 MB


           ************************************************************
           *        Program running with 2 parallel MPI-processes     *
           *              working on a common directory               *
           ************************************************************
----------------------------------------D-I-I-S--------------------------------------------
Iteration    Energy (Eh)           Delta-E    RMSDP     MaxDP     DIISErr   Damp  Time(sec)
-------------------------------------------------------------------------------------------
               ***  Starting incremental Fock matrix formation  ***
    1    -573.5685569283882614     0.00e+00  3.49e-03  1.19e-01  2.61e-01  0.700   6.5
    2    -573.6648639588195238    -9.63e-02  3.03e-03  9.55e-02  2.06e-01  0.700   4.6
                               ***Turning on AO-DIIS***
    3    -573.7433967112060600    -7.85e-02  2.58e-03  7.02e-02  1.62e-01  0.700   5.2
    4    -573.8047645246072079    -6.14e-02  2.09e-03  5.29e-02  1.21e-01  0.700   5.3
    5    -573.8529159549923406    -4.82e-02  1.66e-03  4.04e-02  8.88e-02  0.700   5.7
    6    -573.8901447646364886    -3.72e-02  4.51e-03  1.05e-01  6.40e-02  0.000   5.6
    7    -573.9943690135985435    -1.04e-01  1.46e-03  4.48e-02  1.02e-02  0.000   5.1
    8    -573.9964752308558218    -2.11e-03  1.26e-03  5.17e-02  8.41e-03  0.000   5.1
    9    -573.9976794270739902    -1.20e-03  1.13e-03  5.62e-02  5.97e-03  0.000   4.7
   10    -573.9983690759418096    -6.90e-04  8.69e-04  4.89e-02  4.34e-03  0.000   5.1
                              *** Initializing SOSCF ***
---------------------------------------S-O-S-C-F--------------------------------------
Iteration    Energy (Eh)           Delta-E    RMSDP     MaxDP     MaxGrad    Time(sec)
--------------------------------------------------------------------------------------
   11    -573.9986542126457607    -2.85e-04  5.52e-04  3.32e-02  2.83e-03     5.1
               *** Restarting incremental Fock matrix formation ***
   12    -573.9987421210539651    -8.79e-05  3.58e-04  2.25e-02  1.15e-03     8.0
   13    -573.9987733064824624    -3.12e-05  4.57e-04  3.09e-02  5.66e-04     5.3
   14    -573.9987872571155094    -1.40e-05  6.51e-05  1.67e-03  2.46e-04     5.3
   15    -573.9987883066391987    -1.05e-06  5.83e-05  3.53e-03  1.85e-04     5.5
   16    -573.9987888465102515    -5.40e-07  1.36e-05  7.84e-04  2.17e-05     4.7
                 **** Energy Check signals convergence ****

               *****************************************************
               *                     SUCCESS                       *
               *           SCF CONVERGED AFTER  16 CYCLES          *
               *****************************************************


------------------
NL GRID GENERATION
------------------

General Integration Accuracy     IntAcc      ... 4.004
Radial Grid Type                 RadialGrid  ... OptM3 with GC (2021)
Angular Grid (max. ang.)         AngularGrid ... 2 (Lebedev-110)
Angular grid pruning method      GridPruning ... 4 (adaptive)
Weight generation scheme         WeightScheme... mBecke (2022)
Basis function cutoff            BFCut       ... 1.0000e-10
Integration weight cutoff        WCut        ... 1.0000e-14
Partially contracted basis set               ... off
Rotationally invariant grid construction     ... off
Angular grids for H and He will be reduced by one unit
Diffuse basis detected: some atoms will have their outermost
                        angular grid increased by 1.

Total number of grid points                  ...    12461
Total number of batches                      ...      200
Average number of points per batch           ...       62
Average number of grid points per atom       ...     1558
Final grid set up in    0.8 sec

-------------------------------------------------------------------------------
                    post-SCF DFT-NL dispersion correction                      
-------------------------------------------------------------------------------

SCF Energy:     -573.998788847 
NL    Energy:      0.146069526 
SC+NL Energy:   -573.852719321 
NL done in  :              1.0 sec
-------------------------------------------------------------------------------
Recomputing exchange energy using gridx3       ... done (    8.134 sec)
Old exchange energy                            :    -11.363000772 Eh
New exchange energy                            :    -11.362993826 Eh
Exchange energy change after final integration :      0.000006945 Eh
Total energy after final integration           :   -573.852712375 Eh
             **** ENERGY FILE WAS UPDATED (orca.en.tmp) ****

----------------
TOTAL SCF ENERGY
----------------

Total Energy       :       -573.85271237520385 Eh          -15615.32617 eV

Components:
Nuclear Repulsion  :        150.15433528446209 Eh            4085.90719 eV
Electronic Energy  :       -724.15312413097240 Eh          -19705.20830 eV
One Electron Energy:      -1083.20225177784505 Eh          -29475.43177 eV
Two Electron Energy:        359.04912764687259 Eh            9770.22347 eV

Virial components:
Potential Energy   :      -1157.20834366008876 Eh          -31489.23991 eV
Kinetic Energy     :        583.35563128488502 Eh           15873.91374 eV
Virial Ratio       :          1.98370990455899

DFT components:
N(Alpha)           :       17.999973896530 electrons
N(Beta)            :       17.999973896530 electrons
N(Total)           :       35.999947793060 electrons
NL Energy, E(C,NL) :        0.146069525919 Eh       
E(XC)              :      -33.462356124463 Eh       

---------------
SCF CONVERGENCE
---------------

  Last Energy change         ...    5.3987e-07  Tolerance :   1.0000e-06
  Last MAX-Density change    ...    7.8424e-04  Tolerance :   1.0000e-05
  Last RMS-Density change    ...    1.3638e-05  Tolerance :   1.0000e-06
  Last DIIS Error            ...    2.8254e-03  Tolerance :   1.0000e-06
  Last Orbital Gradient      ...    2.1723e-05  Tolerance :   5.0000e-05
  Last Orbital Rotation      ...    5.9922e-05  Tolerance :   5.0000e-05


Total SCF time: 0 days 0 hours 1 min 38 sec 
Finished LeanSCF after  98.8 sec

Maximum memory used throughout the entire LEANSCF-calculation: 16.3 MB

-------------------------   --------------------
FINAL SINGLE POINT ENERGY      -573.852712375204
-------------------------   --------------------



           ************************************************************
           *        Program running with 2 parallel MPI-processes     *
           *              working on a common directory               *
           ************************************************************

------------------------------------------------------------------------------
                              ORCA PROPERTY CALCULATIONS
------------------------------------------------------------------------------

GBWName                                 ... orca.gbw
Number of atoms                         ...      8
Number of basis functions               ...    168
Max core memory                         ...   1024 MB

Electric properties:
Dipole moment                           ... YES
Quadrupole moment                       ...  NO
Static polarizability (Dipole/Dipole)   ...  NO
Static polarizability (Dipole/Quad.)    ...  NO
Static polarizability (Quad./Quad.)     ...  NO
Static polarizability (Velocity)        ...  NO

Atomic electric properties:
Dipole moment                           ...  NO
Quadrupole moment                       ...  NO
Static polarizability                   ...  NO

Choice of electric origin               ... Center of mass
Position of electric origin             ...     3.654076     0.365893     1.219981

General magnetic properties:
Magnetizability                         ...  NO

EPR properties:
g-Tensor (aka g-matrix)                 ...  NO
Zero-Field splitting spin-orbit         ...  NO
Zero-field splitting spin-spin          ...  NO
Hyperfine couplings                     ...  NO (   0 nuclei)
Quadrupole couplings                    ...  NO (   0 nuclei)
Contact density                         ...  NO (   0 nuclei)

NMR properties:
Chemical shifts                         ...  NO (   0 nuclei)
Spin-rotation constants                 ...  NO (   0 nuclei)
Spin-spin couplings                     ...  NO (   0 nuclei,    0 pairs)

Choice of magnetic origin               ... GIAO
Position of magnetic origin             ...     0.000000     0.000000     0.000000

Properties with geometric perturbations:
SCF Hessian                             ...  NO
IR spectrum                             ...  NO
VCD spectrum                            ...  NO
X-ray spectroscopy properties:
SCF XES/XAS/RIXS spectra                ...  NO


-------------
DIPOLE MOMENT
-------------

Method             : SCF
Type of density    : Electron Density
Multiplicity       :   1
Irrep              :   0
Energy             :  -573.8527123752038506 Eh
Relativity type    : 
Basis              : AO
                                X                 Y                 Z
Electronic contribution:     -1.885476521       0.353596808       7.546557113
Nuclear contribution   :      1.096264494      -0.467204612      -5.694731469
                        -----------------------------------------
Total Dipole Moment    :     -0.789212027      -0.113607803       1.851825644
                        -----------------------------------------
Magnitude (a.u.)       :      2.016189617
Magnitude (Debye)      :      5.124746737



--------------------
Rotational spectrum 
--------------------
 
Rotational constants in cm-1:             1.128967             0.203676             0.176954 
Rotational constants in MHz :         33845.576553          6106.063371          5304.935237 

Dipole components along the rotational axes: 
x,y,z [a.u.] :    -1.287486     1.545067    -0.142013 
x,y,z [Debye]:    -3.272529     3.927249    -0.360968 

 

Dipole moment calculation done in   0.1 sec 

Maximum memory used throughout the entire PROP-calculation: 9.3 MB
                              **** MULTIPLE XYZ DONE ***

                         SUMMARY OF THE CALCULATED SURFACE

-------------------------
MULTIPLE XYZ SCAN RESULTS
-------------------------

The Calculated Surface using the 'Actual Energy'
   1.00000000 -576.52197005
   2.00000000 -576.50579375
   3.00000000 -576.46779067
   4.00000000 -576.39363169
   5.00000000 -576.25979325
   6.00000000 -576.02703169
   7.00000000 -575.62993449
   8.00000000 -574.95834631
   9.00000000 -573.85271238

The Calculated Surface using the SCF energy
   1.00000000 -576.52197005
   2.00000000 -576.50579375
   3.00000000 -576.46779067
   4.00000000 -576.39363169
   5.00000000 -576.25979325
   6.00000000 -576.02703169
   7.00000000 -575.62993449
   8.00000000 -574.95834631
   9.00000000 -573.85271238


--------------------------------
SUGGESTED CITATIONS FOR THIS RUN
--------------------------------

Below you find a list of papers that are relevant to this ORCA run
We neither can nor want to force you to cite these papers, but we appreciate if you do
You receive ORCA, which is the product of decades of hard work by many enthusiastic individuals, for free
The only thing we kindly ask in return is that you cite our papers,
We deeply appreciate it, if you show your appreciation for ORCA by not just citing the generic ORCA reference.

Please note that relegating all ORCA citations to the supporting information does *not* help us.
SI sections are not indexed - citations you put there will not count into any citation statistics
But we need these citations in order to attract the funding resources that allow us to do what we are doing

Therefore, if you are a happy ORCA user, please consider citing a few of the papers listed below in the main body of your paper

In addition to the list printed below, the program has created the file orca.bibtex that contains the list in bibtex format
You can import this file easily into all common literature databanks and citation aid programs


List of essential papers. We consider these as the minimum necessary citations

  1. Neese,F.
     Software update: the ORCA program system, version 5.0
     WIRES Comput. Molec. Sci., 2022 12(1)e1606
     doi.org/10.1002/wcms.1606

List of papers to cite with high priority. The work reported in these papers was absolutely
necessary for this run to complete.
Our perspective: the developers of density functionals and basis sets usually get cited in chemistry papers
Good! But without the algorithms to do something with them, the functionals or basis sets would not do anything.
Hence, in our opinion, the algorithm design and method developments papers are equally worthy of getting cited

  1. Neese,F.
     An improvement of the resolution of the identity approximation for the formation of the Coulomb matrix
     J. Comp. Chem., 2003 24(14)1740-1747
     doi.org/10.1002/jcc.10318
  2. Neese,F.; Wennmohs,F.; Hansen,A.; Becker,U.
     Efficient, approximate and parallel Hartree-Fock and hybrid DFT calculations. A 'chain-of-spheres' algorithm for the Hartree-Fock exchange
     Chem. Phys., 2009 356(1-3)98-109
     doi.org/10.1016/j.chemphys.2008.10.036
  3. Helmich-Paris,B.; de Souza,B.; Neese,F.; Izsák,R.
     An improved chain of spheres for exchange algorithm
     J. Chem. Phys., 2021 155 104109
     doi.org/doi: 10.1063/5.0058766.
  4. Neese,F.
     The SHARK Integral Generation and Digestion System
     J. Comp. Chem., 2022  1-16
     doi.org/10.1002/jcc.26942
  5. Lehtola,S.; Steigemann,C.; Oliveira,M.; Marques,M.
     Recent developments in Libxc - A comprehensive library of functionals for density functional theory
     Software X, 2018 7 
     doi.org/10.1016/j.softx.2017.11.002

List of suggested additional citations. These are papers that are important in the 'surrounding' of 
of this run, or papers that preceded the highly important papers. If you like your results we are grateful for a citation.

  1. Izsak,R.; Neese,F.
     An overlap fitted chain of spheres exchange method
     J. Chem. Phys., 2011 135 144105
     doi.org/10.1063/1.3646921
  2. Izsak,R.; Hansen,A.; Neese,F.
     The resolution of identity and chain of spheres approximations for the LPNO-CCSD singles Fock term
     Molec. Phys., 2012 110 2413-2417
     doi.org/10.1080/00268976.2012.687466
  3. Neese,F.
     The ORCA program system
     WIRES Comput. Molec. Sci., 2012 2(1)73-78
     doi.org/10.1002/wcms.81
  4. Izsak,R.; Neese,F.; Klopper,W.
     Robust fitting techniques in the chain of spheres approximation to the Fock exchange: The role of the complementary space
     J. Chem. Phys., 2013 139 
     doi.org/10.1063/1.4819264
  5. Neese,F.
     Software update: the ORCA program system, version 4.0
     WIRES Comput. Molec. Sci., 2018 8(1)1-6
     doi.org/10.1002/wcms.1327
  6. Neese,F.; Wennmohs,F.; Becker,U.; Riplinger,C.
     The ORCA quantum chemistry program package
     J. Chem. Phys., 2020 152 Art. No. L224108
     doi.org/10.1063/5.0004608

List of optional additional citations

  1. Neese,F.
     Approximate second-order SCF convergence for spin unrestricted wavefunctions
     Chem. Phys. Lett., 2000 325(1-3)93-98
     doi.org/10.1016/s0009-2614(00)00662-x

Timings for individual modules:

Sum of individual times          ...      616.246 sec (=  10.271 min)
Startup calculation              ...       32.860 sec (=   0.548 min)   5.3 %
SCF iterations                   ...      576.908 sec (=   9.615 min)  93.6 %
Property calculations            ...        6.479 sec (=   0.108 min)   1.1 %
                             ****ORCA TERMINATED NORMALLY****
TOTAL RUN TIME: 0 days 0 hours 10 minutes 21 seconds 441 msec
