
                                 *****************
                                 * O   R   C   A *
                                 *****************

                                            #,                                       
                                            ###                                      
                                            ####                                     
                                            #####                                    
                                            ######                                   
                                           ########,                                 
                                     ,,################,,,,,                         
                               ,,#################################,,                 
                          ,,##########################################,,             
                       ,#########################################, ''#####,          
                    ,#############################################,,   '####,        
                  ,##################################################,,,,####,       
                ,###########''''           ''''###############################       
              ,#####''   ,,,,##########,,,,          '''####'''          '####       
            ,##' ,,,,###########################,,,                        '##       
           ' ,,###''''                  '''############,,,                           
         ,,##''                                '''############,,,,        ,,,,,,###''
      ,#''                                            '''#######################'''  
     '                                                          ''''####''''         
             ,#######,   #######,   ,#######,      ##                                
            ,#'     '#,  ##    ##  ,#'     '#,    #''#        ,####,   ,####,        
            ##       ##  ##   ,#'  ##            #'  '#       #'       #'  '#        
            ##       ##  #######   ##           ,######,      #####,   #    #        
            '#,     ,#'  ##    ##  '#,     ,#' ,#      #,     #,   #   #,  ,#        
             '#######'   ##     ##  '#######'  #'      '#     '####' # '####'        



                #########################################################
                #                        -***-                          #
                #          Department of theory and spectroscopy        #
                #                                                       #
                #                      Frank Neese                      #
                #                                                       #
                #     Directorship, Architecture, Infrastructure        #
                #                    SHARK, DRIVERS                     #
                #        Core code/Algorithms in most modules           #
                #                                                       #
                #        Max Planck Institute fuer Kohlenforschung      #
                #                Kaiser Wilhelm Platz 1                 #
                #                 D-45470 Muelheim/Ruhr                 #
                #                      Germany                          #
                #                                                       #
                #                  All rights reserved                  #
                #                        -***-                          #
                #########################################################


                         Program Version 6.0.1  -  RELEASE   -


 With contributions from (in alphabetic order):
[Max-Planck-Institut fuer Kohlenforschung]                               
  Daniel Aravena         : Magnetic Suceptibility                        
  Michael Atanasov       : Ab Initio Ligand Field Theory (pilot matlab implementation)
  Alexander A. Auer      : GIAO ZORA, VPT2 properties, NMR spectrum      
  Ute Becker             : All parallelization in ORCA, NUMFREQ, NUMCALC 
  Giovanni Bistoni       : ED, misc. LED, open-shell LED, HFLD           
  Martin Brehm           : Molecular dynamics                            
  Dmytro Bykov           : pre 5.0 version of the SCF Hessian            
  Marcos Casanova-Páez   : Triplet and SCS-CIS(D). UHF-(DLPNO)-IP/EA/STEOM-CCSD. UHF-CVS-IP/STEOM-CCSD   
  Vijay G. Chilkuri      : MRCI spin determinant printing, contributions to CSF-ICE 
  Pauline Colinet        : FMM embedding                                 
  Dipayan Datta          : RHF DLPNO-CCSD density                        
  Achintya Kumar Dutta   : EOM-CC, STEOM-CC                              
  Nicolas Foglia         : Exact transition moments, OPA infrastructure, MCD improvements    
  Dmitry Ganyushin       : Spin-Orbit,Spin-Spin,Magnetic field MRCI      
  Miquel Garcia-Rates    : C-PCM and meta-GGA Hessian, CCSD/C-PCM, Gaussian charge scheme 
  Tiago L. C. Gouveia    : GS-ROHF, GS-ROCIS                             
  Yang Guo               : DLPNO-NEVPT2, F12-NEVPT2, CIM, IAO-localization        
  Andreas Hansen         : Spin unrestricted coupled pair/coupled cluster methods 
  Ingolf Harden          : AUTO-CI MPn and infrastructure                
  Benjamin Helmich-Paris : MC-RPA, TRAH-(SCF,CASSCF), AVAS, COSX integrals, SCF dyn. polar. 
  Lee Huntington         : MR-EOM, pCC                                   
  Robert Izsak           : Overlap fitted RIJCOSX, COSX-SCS-MP3, EOM     
  Riya Kayal             : Wick's Theorem for AUTO-CI, AUTO-CI UHF-CCSDT 
  Emily Kempfer          : AUTO-CI, RHF CISDT and CCSDT                  
  Christian Kollmar      : KDIIS, OOCD, Brueckner-CCSD(T), CCSD density, CASPT2, CASPT2-K, improved NEVPT2 
  Axel Koslowski         : Symmetry handling                             
  Simone Kossmann        : meta-GGA functionals, TD-DFT gradient, OOMP2, (MP2 Hessian; deprecated post 5.0) 
  Lucas Lang             : DCDCAS                                        
  Marvin Lechner         : AUTO-CI (C++ implementation), FIC-MRCC        
  Spencer Leger          : CASSCF response                               
  Dagmar Lenk            : GEPOL surface, SMD, ORCA-2-JSON               
  Dimitrios Liakos       : Extrapolation schemes; Compound Job, initial MDCI parallelization 
  Dimitrios Manganas     : Further ROCIS development; embedding schemes. LFT, Crystal Embedding 
  Dimitrios Pantazis     : SARC Basis sets                               
  Anastasios Papadopoulos: AUTO-CI, single reference methods and gradients 
  Taras Petrenko         : pre 6.0 DFT Hessian and TD-DFT gradient, (ASA, deprecated), ECA, 1-Electron XAS/XES, NRVS 
  Peter Pinski           : DLPNO-MP2, DLPNO-MP2 Gradient                 
  Christoph Reimann      : Effective Core Potentials                     
  Marius Retegan         : Local ZFS, SOC                                
  Christoph Riplinger    : Optimizer, TS searches, QM/MM, DLPNO-CCSD(T), (RO)-DLPNO pert. Triples 
  Michael Roemelt        : Original ROCIS implementation                 
  Masaaki Saitow         : Open-shell DLPNO-CCSD energy and density      
  Barbara Sandhoefer     : DKH picture change effects                    
  Kantharuban Sivalingam : CASSCF convergence/infrastructure, NEVPT2 and variants, FIC-MRCI 
  Bernardo de Souza      : ESD, SOC TD-DFT                               
  Georgi L. Stoychev     : AutoAux, RI-MP2 NMR, DLPNO-MP2 response, X2C  
  Van Anh Tran           : RI-MP2 g-tensors                              
  Willem Van den Heuvel  : Paramagnetic NMR                              
  Zikuan Wang            : NOTCH, Electric field optimization            
  Frank Wennmohs         : Technical directorship and infrastructure     
  Hang Xu                : AUTO-CI-Response properties                   
                                                                         
[FACCTs GmbH]                                                            
  Markus Bursch, Miquel Garcia-Rates, Christoph Riplinger, Bernardo de Souza, Georgi L. Stoychev 
                                                                 
  APM, Basis sets (HGBS, AHGBS, def-TZVP (Ac-Lr), def2-XVPD (La-Lu)), CI-OPT, improved COSX, DLPNO-Multilevel,           
  DOCKER, DRACO, updates on ESD, GOAT, IRC, LR-CPCM, MBIS, meta-GGA TD-DFT gradient, ML-optimized integration grids, 
  MM, NACMEs, nearIR, NEB, NEB-TS, NL-DFT gradient (VV10), 2- and 3-layer-ONIOM, interface openCOSMO-RS, QMMM,   
  Crystal-QMMM, SF, symmetry and pop. for TD-DFT, r2SCAN hybrids, SOLVATOR                                   
                                                                         
[Other institutions]                                                     
  V. Asgeirsson          : NEB                                           
  Christoph Bannwarth    : sTDA-DFT, sTD-DFT, PBEh-3c, B97-3c, D3        
  Sebastian Ehlert       : rSCAN, r2SCAN, r2SCAN-3c, D4, dhf basis sets  
  Marvin Friede          : D4 for Fr, Ra, Ac-Lr                          
  Lars Goerigk           : TD-DFT with DH, B97 family of functionals     
  Stefan Grimme          : VdW corrections, initial TS optimization, DFT functionals, gCP, sTDA/sTD-DF 
  Waldemar Hujo          : DFT-NL                                        
  H. Jonsson             : NEB                                           
  Holger Kruse           : gCP                                           
  Marcel Mueller         : wB97X-3c, vDZP basis set                      
  Hagen Neugebauer       : wr2SCAN                                       
  Tobias Risthaus        : range-separated hybrid DFT                    
  Lukas Wittmann         : regularized MP2, r2SCAN double-hybrids, wr2SCAN        
                                                                         
We gratefully acknowledge several colleagues who have allowed us to      
interface, adapt or use parts of their codes:                            
  Ed Valeev, F. Pavosevic, A. Kumar             : LibInt (2-el integral package), F12 methods 
  Garnet Chan, S. Sharma, J. Yang, R. Olivares  : DMRG                   
  Ulf Ekstrom                                   : XCFun DFT Library      
  Mihaly Kallay                                 : mrcc  (arbitrary order and MRCC methods)
  Frank Weinhold                                : gennbo (NPA and NBO analysis)           
  Simon Mueller                                 : openCOSMO-RS                            
  Christopher J. Cramer and Donald G. Truhlar   : smd solvation model                     
  S Lehtola, MJT Oliveira, MAL Marques          : LibXC Library                           
  Liviu Ungur et al                             : ANISO software                          


 Your calculation uses the libint2 library for the computation of 2-el integrals
 For citations please refer to: http://libint.valeyev.net

 Your ORCA version has been built with support for libXC version: 6.2.2
 For citations please refer to: https://libxc.gitlab.io

 This ORCA versions uses:
   CBLAS   interface :  Fast vector & matrix operations
   LAPACKE interface :  Fast linear algebra routines
   SCALAPACK package :  Parallel linear algebra routines
   Shared memory     :  Shared parallel matrices
   BLAS/LAPACK       :  OpenBLAS 0.3.27  USE64BITINT DYNAMIC_ARCH NO_AFFINITY Cooperlake SINGLE_THREADED
        Core in use  :  Cooperlake
   Copyright (c) 2011-2014, The OpenBLAS Project




***************************************
The coordinates will be read from file: /temp180/bsavoie2/emille35/mlip_alchemy/sn1_scans/ch3cl/uwb97mv-tzvpd/orca.allxyz
***************************************


****
**** There are 64 structures found in the file
****
Your calculation utilizes the DFT-NL dispersion correction.
Cite in your paper:
Vydrov, O. A.; Van Voorhis, T. J. Chem. Phys. 2010, 133, 244103
Hujo, W.; Grimme, S. J. Chem. Theory Comput. 2011, 7, 3866 
   

Warning: RI is on but no J-basis has been assigned. Assigning Def2/J (nothing to worry about!)
================================================================================

----- Orbital basis set information -----
Your calculation utilizes the basis: def2-TZVPD
   F. Weigend and R. Ahlrichs, Phys. Chem. Chem. Phys. 7, 3297 (2005).
   D. Rappoport and F. Furche, J. Chem. Phys. 133, 134105 (2010)
   D. Rappoport, J. Chem. Phys. 155, 124102 (2021).

----- AuxJ basis set information -----
Your calculation utilizes the auxiliary basis: def2/J
   F. Weigend, Phys. Chem. Chem. Phys. 8, 1057 (2006).

================================================================================
                                        WARNINGS
                       Please study these warnings very carefully!
================================================================================


WARNING: B97M-V or wB97M-V functional requested.
  ===> : libXC variant has now been activated.
         Any manually given DFX/HFX/RangeSep scaling parameters are IGNORED!


================================================================================
                                       INPUT FILE
================================================================================
NAME = orca.inp
|  1> ! UKS wB97M-V def2-TZVPD PAL2
|  2> 
|  3> * xyzfile 2 1 /temp180/bsavoie2/emille35/mlip_alchemy/sn1_scans/ch3cl/uwb97mv-tzvpd/orca.allxyz
|  4> 
|  5>                          ****END OF INPUT****
================================================================================

                      *********************************
                      * Multiple XYZ Scan Calculation *
                      *********************************

Multiple XYZ scan settings:
    -> SCF surface will be mapped

There are 64 structures to be calculated

         *************************************************************
                               MULTIPLE XYZ STEP   1
         *************************************************************
---------------------------------
CARTESIAN COORDINATES (ANGSTROEM)
---------------------------------
  C     -0.011361    0.000097   -0.000042
  Cl     6.988639   -0.000284   -0.000127
  H     -0.005870    0.127880   -1.069946
  H     -0.016667    0.862758    0.645612
  H     -0.009881   -0.990371    0.424263

----------------------------
CARTESIAN COORDINATES (A.U.)
----------------------------
  NO LB      ZA    FRAG     MASS         X           Y           Z
   0 C     6.0000    0    12.011   -0.021469    0.000183   -0.000079
   1 Cl   17.0000    0    35.453   13.206614   -0.000537   -0.000240
   2 H     1.0000    0     1.008   -0.011093    0.241658   -2.021905
   3 H     1.0000    0     1.008   -0.031496    1.630376    1.220030
   4 H     1.0000    0     1.008   -0.018672   -1.871530    0.801741

--------------------------------
INTERNAL COORDINATES (ANGSTROEM)
--------------------------------
 C      0   0   0     0.000000000000     0.00000000     0.00000000
 Cl     1   0   0     7.000000010885     0.00000000     0.00000000
 H      1   2   0     1.077521793462    89.70770116     0.00000000
 H      1   2   3     1.077534798637    90.28505076   239.99799543
 H      1   2   3     1.077526696861    89.91871071   120.00055589

---------------------------
INTERNAL COORDINATES (A.U.)
---------------------------
 C      0   0   0     0.000000000000     0.00000000     0.00000000
 Cl     1   0   0    13.228082958018     0.00000000     0.00000000
 H      1   2   0     2.036221092975    89.70770116     0.00000000
 H      1   2   3     2.036245669193    90.28505076   239.99799543
 H      1   2   3     2.036230359057    89.91871071   120.00055589

---------------------
BASIS SET INFORMATION
---------------------
There are 3 groups of distinct atoms

 Group   1 Type C   : 12s6p3d1f contracted to 6s3p3d1f pattern {621111/411/111/1}
 Group   2 Type Cl  : 15s10p4d1f contracted to 6s6p3d1f pattern {732111/511111/211/1}
 Group   3 Type H   : 5s2p contracted to 3s2p pattern {311/11}

Atom   0C    basis set group =>   1
Atom   1Cl   basis set group =>   2
Atom   2H    basis set group =>   3
Atom   3H    basis set group =>   3
Atom   4H    basis set group =>   3
---------------------------------
AUXILIARY/J BASIS SET INFORMATION
---------------------------------
There are 3 groups of distinct atoms

 Group   1 Type C   : 12s5p4d2f1g contracted to 6s4p3d1f1g pattern {711111/2111/211/2/1}
 Group   2 Type Cl  : 14s5p5d2f1g contracted to 8s4p3d1f1g pattern {71111111/2111/311/2/1}
 Group   3 Type H   : 5s2p1d contracted to 3s1p1d pattern {311/2/1}

Atom   0C    basis set group =>   1
Atom   1Cl   basis set group =>   2
Atom   2H    basis set group =>   3
Atom   3H    basis set group =>   3
Atom   4H    basis set group =>   3


           ************************************************************
           *        Program running with 2 parallel MPI-processes     *
           *              working on a common directory               *
           ************************************************************
------------------------------------------------------------------------------
                             ORCA STARTUP CALCULATIONS
                           -- RI-GTO INTEGRALS CHOSEN --
------------------------------------------------------------------------------
------------------------------------------------------------------------------
                   ___                                                        
                  /   \      - P O W E R E D   B Y -                         
                 /     \                                                     
                 |  |  |   _    _      __       _____    __    __             
                 |  |  |  | |  | |    /  \     |  _  \  |  |  /  |          
                  \  \/   | |  | |   /    \    | | | |  |  | /  /          
                 / \  \   | |__| |  /  /\  \   | |_| |  |  |/  /          
                |  |  |   |  __  | /  /__\  \  |    /   |      \           
                |  |  |   | |  | | |   __   |  |    \   |  |\   \          
                \     /   | |  | | |  |  |  |  | |\  \  |  | \   \       
                 \___/    |_|  |_| |__|  |__|  |_| \__\ |__|  \__/        
                                                                              
                      - O R C A' S   B I G   F R I E N D -                    
                                      &                                       
                       - I N T E G R A L  F E E D E R -                       
                                                                              
 v1 FN, 2020, v2 2021, v3 2022-2024                                           
------------------------------------------------------------------------------


----------------------
SHARK INTEGRAL PACKAGE
----------------------

Number of atoms                             ...      5
Number of basis functions                   ...    110
Number of shells                            ...     44
Maximum angular momentum                    ...      3
Integral batch strategy                     ... SHARK/LIBINT Hybrid
RI-J (if used) integral strategy            ... SPLIT-RIJ (Revised 2003 algorithm where possible)
Printlevel                                  ...      1
Contraction scheme used                     ... SEGMENTED contraction
Prescreening option                         ... SCHWARTZ
   Thresh                                   ... 1.000e-10
   Tcut                                     ... 1.000e-11
   Tpresel                                  ... 1.000e-11 
Coulomb Range Separation                    ... NOT USED
Exchange Range Separation                   ... Long Range
   Mu parameter                             ... 3.000e-01
   Scaling (regular/separated)              ... 1.500e-01 8.500e-01
Multipole approximations                    ... NOT USED
Finite Nucleus Model                        ... NOT USED
CABS basis                                  ... NOT available
Auxiliary Coulomb fitting basis             ... AVAILABLE
   # of basis functions in Aux-J            ...    133
   # of shells in Aux-J                     ...     47
   Maximum angular momentum in Aux-J        ...      4
Auxiliary J/K fitting basis                 ... NOT available
Auxiliary Correlation fitting basis         ... NOT available
Auxiliary 'external' fitting basis          ... NOT available

Checking pre-screening integrals            ... done (  1.7 sec) Dimension = 44
Check shell pair data                       ... done (  0.6 sec)
Shell pair information
Shell pair cut-off parameter TPreSel        ...   1.0e-11
Total number of shell pairs                 ...       990
Shell pairs after pre-screening             ...       791
Total number of primitive shell pairs       ...      2768
Primitive shell pairs kept                  ...      1889
          la=0 lb=0:    186 shell pairs
          la=1 lb=0:    255 shell pairs
          la=1 lb=1:    101 shell pairs
          la=2 lb=0:     98 shell pairs
          la=2 lb=1:     74 shell pairs
          la=2 lb=2:     18 shell pairs
          la=3 lb=0:     28 shell pairs
          la=3 lb=1:     21 shell pairs
          la=3 lb=2:      8 shell pairs
          la=3 lb=3:      2 shell pairs

Calculating one electron integrals          ... done (  0.0 sec)
Calculating RI/J V-Matrix + Cholesky decomp.... done (  0.0 sec)
Calculating Nuclear repulsion               ... done (  0.0 sec) ENN=     21.212188722744 Eh

Diagonalization of the overlap matrix:
Smallest eigenvalue                        ... 6.598e-05
Time for diagonalization                   ...    0.001 sec
Threshold for overlap eigenvalues          ... 1.000e-07
Number of eigenvalues below threshold      ... 0
Time for construction of square roots      ...    0.008 sec
Total time needed                          ...    0.021 sec

-------------------
DFT GRID GENERATION
-------------------

General Integration Accuracy     IntAcc      ... 4.388
Radial Grid Type                 RadialGrid  ... OptM3 with GC (2021)
Angular Grid (max. ang.)         AngularGrid ... 4 (Lebedev-302)
Angular grid pruning method      GridPruning ... 4 (adaptive)
Weight generation scheme         WeightScheme... mBecke (2022)
Basis function cutoff            BFCut       ... 1.0000e-10
Integration weight cutoff        WCut        ... 1.0000e-14
Partially contracted basis set               ... off
Rotationally invariant grid construction     ... off
Angular grids for H and He will be reduced by one unit
Diffuse basis detected: some atoms will have their outermost
                        angular grid increased by 1.

Total number of grid points                  ...    24728
Total number of batches                      ...      388
Average number of points per batch           ...       63
Average number of grid points per atom       ...     4946

--------------------
COSX GRID GENERATION
--------------------

GRIDX 1
-------
General Integration Accuracy     IntAcc      ... 3.816
Radial Grid Type                 RadialGrid  ... OptM3 with GC (2021)
Angular Grid (max. ang.)         AngularGrid ... 1 (Lebedev-50)
Angular grid pruning method      GridPruning ... 4 (adaptive)
Weight generation scheme         WeightScheme... mBecke (2022)
Basis function cutoff            BFCut       ... 1.0000e-10
Integration weight cutoff        WCut        ... 1.0000e-14
Partially contracted basis set               ... on
Rotationally invariant grid construction     ... off
Angular grids for H and He will be reduced by one unit
Diffuse basis detected: some atoms will have their outermost
                        angular grid increased by 1.

Total number of grid points                  ...     4363
Total number of batches                      ...       37
Average number of points per batch           ...      117
Average number of grid points per atom       ...      873
UseSFitting                                  ... on

GRIDX 2
-------
General Integration Accuracy     IntAcc      ... 4.020
Radial Grid Type                 RadialGrid  ... OptM3 with GC (2021)
Angular Grid (max. ang.)         AngularGrid ... 2 (Lebedev-110)
Angular grid pruning method      GridPruning ... 4 (adaptive)
Weight generation scheme         WeightScheme... mBecke (2022)
Basis function cutoff            BFCut       ... 1.0000e-10
Integration weight cutoff        WCut        ... 1.0000e-14
Partially contracted basis set               ... on
Rotationally invariant grid construction     ... off
Angular grids for H and He will be reduced by one unit
Diffuse basis detected: some atoms will have their outermost
                        angular grid increased by 1.

Total number of grid points                  ...     7258
Total number of batches                      ...       60
Average number of points per batch           ...      120
Average number of grid points per atom       ...     1452
UseSFitting                                  ... on

GRIDX 3
-------
General Integration Accuracy     IntAcc      ... 4.338
Radial Grid Type                 RadialGrid  ... OptM3 with GC (2021)
Angular Grid (max. ang.)         AngularGrid ... 3 (Lebedev-194)
Angular grid pruning method      GridPruning ... 4 (adaptive)
Weight generation scheme         WeightScheme... mBecke (2022)
Basis function cutoff            BFCut       ... 1.0000e-10
Integration weight cutoff        WCut        ... 1.0000e-14
Partially contracted basis set               ... on
Rotationally invariant grid construction     ... off
Angular grids for H and He will be reduced by one unit
Diffuse basis detected: some atoms will have their outermost
                        angular grid increased by 1.

Total number of grid points                  ...    17322
Total number of batches                      ...      140
Average number of points per batch           ...      123
Average number of grid points per atom       ...     3464
UseSFitting                                  ... on
Initializing property integral containers    ... done (  0.9 sec)

SHARK setup successfully completed in  13.9 seconds

Maximum memory used throughout the entire STARTUP-calculation: 15.2 MB


           ************************************************************
           *        Program running with 2 parallel MPI-processes     *
           *              working on a common directory               *
           ************************************************************
-------------------------------------------------------------------------------
                                 ORCA GUESS
                   Start orbitals & Density for SCF / CASSCF
-------------------------------------------------------------------------------

------------
SCF SETTINGS
------------
Hamiltonian:
 Density Functional     Method          .... DFT(GTOs)
  Functional kind                       .... Exchange-Correlation
  Functional name                       .... wB97M-V exchange-correlation functional
  Functional family                     .... Hybrid MGGA
  Functional refs                              
    [ 0] N. Mardirossian and M. Head-Gordon.,  J. Chem. Phys. 144, 214110 (2016), doi: 10.1063/1.4952647
  Fraction of HF Exchange (short range) .... 0.1500
  Fraction of HF Exchange (long range)  .... 1.0000
  Range separation parameter mu         .... 0.3000
  Functional external parameters        .... 17
    Parameter  0 _cx00      =  8.500000e-01 : u^00 coefficient for exchange
    Parameter  1 _cx01      =  1.007000e+00 : u^01 coefficient for exchange
    Parameter  2 _cx10      =  2.590000e-01 : u^10 coefficient for exchange
    Parameter  3 _css00     =  4.430000e-01 : u^00 coefficient for same-spin correlation
    Parameter  4 _css04     = -1.437000e+00 : u^04 coefficient for same-spin correlation
    Parameter  5 _css10     = -4.535000e+00 : u^10 coefficient for same-spin correlation
    Parameter  6 _css20     = -3.390000e+00 : u^20 coefficient for same-spin correlation
    Parameter  7 _css43     =  4.278000e+00 : u^43 coefficient for same-spin correlation
    Parameter  8 _cos00     =  1.000000e+00 : u^00 coefficient for opposite-spin correlation
    Parameter  9 _cos10     =  1.358000e+00 : u^10 coefficient for opposite-spin correlation
    Parameter 10 _cos20     =  2.924000e+00 : u^20 coefficient for opposite-spin correlation
    Parameter 11 _cos21     = -8.812000e+00 : u^21 coefficient for opposite-spin correlation
    Parameter 12 _cos60     = -1.390000e+00 : u^60 coefficient for opposite-spin correlation
    Parameter 13 _cos61     =  9.142000e+00 : u^61 coefficient for opposite-spin correlation
    Parameter 14 _alpha     =  1.000000e+00 : fraction of HF exchange
    Parameter 15 _beta      = -8.500000e-01 : fraction of short-range exchange
    Parameter 16 _omega     =  3.000000e-01 : range-separation constant
 Long-range corrected/Screened/Range-Separated Hybrid DFT is turned on
   Amount of maximum screened exact exchange              ....  0.850000
   Range separation parameter mu (erf(mu*r12)/r12)        ....  0.300000
   NL short-range parameter             ....  6.000000
   NL long-range parameter              ....  0.010000
 RI-approximation to the Coulomb term is turned on
   Number of AuxJ basis functions       .... 133
   RIJ-COSX (HFX calculated with COS-X)).... on


General Settings:
 Integral files         IntName         .... orca
 Hartree-Fock type      HFTyp           .... UHF
 Total Charge           Charge          ....    2
 Multiplicity           Mult            ....    1
 Number of Electrons    NEL             ....   24
 Basis Dimension        Dim             ....  110
 Nuclear Repulsion      ENuc            ....     21.2121887227 Eh

Convergence Acceleration:
 AO-DIIS                CNVDIIS         .... on
   Start iteration      DIISMaxIt       ....    12
   Startup error        DIISStart       ....  0.200000
   # of expansion vecs  DIISMaxEq       ....     5
   Bias factor          DIISBfac        ....   1.050
   Max. coefficient     DIISMaxC        ....  10.000
 MO-DIIS                CNVKDIIS        .... off
 Trust-Rad. Augm. Hess. CNVTRAH         .... auto
   Auto Start mean grad. ratio tolernc. ....  1.125000
   Auto Start start iteration           ....    50
   Auto Start num. interpolation iter.  ....    10
   Max. Number of Micro iterations      ....    24
   Max. Number of Macro iterations      .... Maxiter - #DIIS iter
   Number of Davidson start vectors     ....     2
   Converg. threshold    (grad. norm)   ....   5.000e-05
   Grad. Scal. Fac. for Micro threshold ....   0.100
   Minimum threshold for Micro iter.    ....   1.000e-02
   NR start threshold (gradient norm)   ....   1.000e-04
   Initial trust radius                 ....   0.400
   Minimum AH scaling param. (alpha)    ....   1.000
   Maximum AH scaling param. (alpha)    .... 1000.000
   Quad. conv. algorithm                .... NR
   White noise on init. David. guess    .... on
   Maximum white noise                  ....   0.010
   Pseudo random numbers                .... off
   Inactive MOs                         .... canonical
   Orbital update algorithm             .... Taylor
   Preconditioner                       .... Diag
   Full preconditioner red. dimension   ....   250
 SOSCF                  CNVSOSCF        .... on
   Start iteration      SOSCFMaxIt      ....   150
   Startup grad/error   SOSCFStart      ....  0.003300
   Hessian update       SOSCFHessUp     .... L-BFGS
 Level Shifting         CNVShift        .... on
   Level shift para.    LevelShift      ....    0.2500
   Turn off err/grad.   ShiftErr        ....    0.0010
 Zerner damping         CNVZerner       .... off
 Static damping         CNVDamp         .... on
   Fraction old density DampFac         ....    0.7000
   Max. Damping (<1)    DampMax         ....    0.9800
   Min. Damping (>=0)   DampMin         ....    0.0000
   Turn off err/grad.   DampErr         ....    0.1000

SCF Procedure:
 Maximum # iterations   MaxIter         ....   125
 SCF integral mode      SCFMode         .... Direct
   Integral package                     .... SHARK and LIBINT hybrid scheme
 Reset frequency        DirectResetFreq ....    20
 Integral Threshold     Thresh          ....  1.000e-10 Eh
 Primitive CutOff       TCut            ....  1.000e-11 Eh

Convergence Tolerance:
 Convergence Check Mode ConvCheckMode   .... Total+1el-Energy
 Convergence forced     ConvForced      .... 0
 Energy Change          TolE            ....  1.000e-06 Eh
 1-El. energy change                    ....  1.000e-03 Eh
 Orbital Gradient       TolG            ....  5.000e-05
 Orbital Rotation angle TolX            ....  5.000e-05
 DIIS Error             TolErr          ....  1.000e-06

------------------------------
INITIAL GUESS: MODEL POTENTIAL
------------------------------
Loading Hartree-Fock densities                     ... done
Calculating cut-offs                               ... done
Initializing the effective Hamiltonian             ... done
Setting up the integral package (SHARK)            ... done
Starting the Coulomb interaction                   ... done (   2.0 sec)
Making the grid                                    ... done (   0.0 sec)
Mapping shells                                     ... done
Starting the XC term evaluation                    ... done (   0.0 sec)
  promolecular density results
     # of electrons  =     25.998587792
     EX              =    -33.266268071
     EC              =     -0.908344735
     EX+EC           =    -34.174612806
Transforming the Hamiltonian                       ... done (   0.8 sec)
Diagonalizing the Hamiltonian                      ... done (   0.0 sec)
Back transforming the eigenvectors                 ... done (   2.2 sec)
Now organizing SCF variables                       ... done
                      ------------------
                      INITIAL GUESS DONE (  14.6 sec)
                      ------------------
             **** ENERGY FILE WAS UPDATED (orca.en.tmp) ****
Finished Guess after  24.3 sec
Maximum memory used throughout the entire GUESS-calculation: 8.3 MB


           ************************************************************
           *        Program running with 2 parallel MPI-processes     *
           *              working on a common directory               *
           ************************************************************

-------------------------------------------------------------------------------------------
                                      ORCA LEAN-SCF
                              memory conserving SCF solver
-------------------------------------------------------------------------------------------

----------------------------------------D-I-I-S--------------------------------------------
Iteration    Energy (Eh)           Delta-E    RMSDP     MaxDP     DIISErr   Damp  Time(sec)
-------------------------------------------------------------------------------------------
               ***  Starting incremental Fock matrix formation  ***
    1    -499.0284068809619384     0.00e+00  8.16e-04  3.86e-02  6.43e-02  0.700  50.2
    2    -499.0421580238077013    -1.38e-02  6.41e-04  2.85e-02  4.50e-02  0.700  58.1
                               ***Turning on AO-DIIS***
    3    -499.0513055949726322    -9.15e-03  3.93e-04  1.30e-02  2.92e-02  0.700  51.2
    4    -499.0573714998146215    -6.07e-03  8.94e-04  2.51e-02  2.00e-02  0.000  50.7
                              *** Initializing SOSCF ***
---------------------------------------S-O-S-C-F--------------------------------------
Iteration    Energy (Eh)           Delta-E    RMSDP     MaxDP     MaxGrad    Time(sec)
--------------------------------------------------------------------------------------
    5    -499.0711109585660097    -1.37e-02  5.12e-05  1.90e-03  1.22e-03    56.7
               *** Restarting incremental Fock matrix formation ***
    6    -499.0711219678399857    -1.10e-05  1.62e-05  3.59e-04  4.58e-04    49.9
    7    -499.0711236012508607    -1.63e-06  6.13e-06  2.76e-04  1.05e-04    46.2
    8    -499.0711236738043226    -7.26e-08  6.16e-07  2.35e-05  3.49e-05    47.9
                 **** Energy Check signals convergence ****

               *****************************************************
               *                     SUCCESS                       *
               *           SCF CONVERGED AFTER   8 CYCLES          *
               *****************************************************


------------------
NL GRID GENERATION
------------------

General Integration Accuracy     IntAcc      ... 4.004
Radial Grid Type                 RadialGrid  ... OptM3 with GC (2021)
Angular Grid (max. ang.)         AngularGrid ... 2 (Lebedev-110)
Angular grid pruning method      GridPruning ... 4 (adaptive)
Weight generation scheme         WeightScheme... mBecke (2022)
Basis function cutoff            BFCut       ... 1.0000e-10
Integration weight cutoff        WCut        ... 1.0000e-14
Partially contracted basis set               ... off
Rotationally invariant grid construction     ... off
Angular grids for H and He will be reduced by one unit
Diffuse basis detected: some atoms will have their outermost
                        angular grid increased by 1.

Total number of grid points                  ...     8465
Total number of batches                      ...      134
Average number of points per batch           ...       63
Average number of grid points per atom       ...     1693
Final grid set up in    0.0 sec

-------------------------------------------------------------------------------
                    post-SCF DFT-NL dispersion correction                      
-------------------------------------------------------------------------------

SCF Energy:     -499.071123674 
NL    Energy:      0.104245031 
SC+NL Energy:   -498.966878643 
NL done in  :              1.2 sec
-------------------------------------------------------------------------------
Recomputing exchange energy using gridx3       ... done (    3.663 sec)
Old exchange energy                            :     -8.239283095 Eh
New exchange energy                            :     -8.239281932 Eh
Exchange energy change after final integration :      0.000001163 Eh
Total energy after final integration           :   -498.966877480 Eh
             **** ENERGY FILE WAS UPDATED (orca.en.tmp) ****

----------------
TOTAL SCF ENERGY
----------------

Total Energy       :       -498.96687748001534 Eh          -13577.57901 eV

Components:
Nuclear Repulsion  :         21.21218872274415 Eh             577.21300 eV
Electronic Energy  :       -520.28331239654835 Eh          -14157.62869 eV
One Electron Energy:       -716.47170136826469 Eh          -19496.18616 eV
Two Electron Energy:        196.18838897171628 Eh            5338.55747 eV

Virial components:
Potential Energy   :       -997.22445304156463 Eh          -27135.85693 eV
Kinetic Energy     :        498.25757556154929 Eh           13558.27792 eV
Virial Ratio       :          2.00142356474493

DFT components:
N(Alpha)           :       11.999919418576 electrons
N(Beta)            :       11.999919418576 electrons
N(Total)           :       23.999838837152 electrons
NL Energy, E(C,NL) :        0.104245031110 Eh       
E(XC)              :      -25.741454783920 Eh       

---------------
SCF CONVERGENCE
---------------

  Last Energy change         ...    7.2553e-08  Tolerance :   1.0000e-06
  Last MAX-Density change    ...    2.3455e-05  Tolerance :   1.0000e-05
  Last RMS-Density change    ...    6.1578e-07  Tolerance :   1.0000e-06
  Last DIIS Error            ...    1.2165e-03  Tolerance :   1.0000e-06
  Last Orbital Gradient      ...    3.4907e-05  Tolerance :   5.0000e-05
  Last Orbital Rotation      ...    1.8809e-05  Tolerance :   5.0000e-05


----------------------
UHF SPIN CONTAMINATION
----------------------

Warning: in a DFT calculation there is little theoretical justification to 
         calculate <S**2> as in Hartree-Fock theory. We will do it anyways
         but you should keep in mind that the values have only limited relevance

Expectation value of <S**2>     :    -0.000000
Ideal value S*(S+1) for S=0.0   :     0.000000
Deviation                       :    -0.000000

----------------
ORBITAL ENERGIES
----------------
                 SPIN UP ORBITALS
  NO   OCC          E(Eh)            E(eV) 
   0   1.0000    -102.491042     -2788.9230 
   1   1.0000     -10.875842      -295.9467 
   2   1.0000     -10.248685      -278.8809 
   3   1.0000      -7.967083      -216.7954 
   4   1.0000      -7.939160      -216.0355 
   5   1.0000      -7.939116      -216.0343 
   6   1.0000      -1.433567       -39.0093 
   7   1.0000      -1.242503       -33.8102 
   8   1.0000      -0.968314       -26.3492 
   9   1.0000      -0.968287       -26.3484 
  10   1.0000      -0.922886       -25.1130 
  11   1.0000      -0.922129       -25.0924 
  12   0.0000      -0.668486       -18.1904 
  13   0.0000      -0.462064       -12.5734 
  14   0.0000      -0.237054        -6.4506 
  15   0.0000      -0.218225        -5.9382 
  16   0.0000      -0.182118        -4.9557 
  17   0.0000      -0.180789        -4.9195 
  18   0.0000      -0.173020        -4.7081 
  19   0.0000      -0.153925        -4.1885 
  20   0.0000      -0.153676        -4.1817 
  21   0.0000      -0.128779        -3.5043 
  22   0.0000      -0.125059        -3.4030 

                 SPIN DOWN ORBITALS
  NO   OCC          E(Eh)            E(eV) 
   0   1.0000    -102.491042     -2788.9230 
   1   1.0000     -10.875842      -295.9467 
   2   1.0000     -10.248685      -278.8809 
   3   1.0000      -7.967083      -216.7954 
   4   1.0000      -7.939160      -216.0355 
   5   1.0000      -7.939116      -216.0343 
   6   1.0000      -1.433567       -39.0093 
   7   1.0000      -1.242503       -33.8102 
   8   1.0000      -0.968314       -26.3492 
   9   1.0000      -0.968287       -26.3484 
  10   1.0000      -0.922886       -25.1130 
  11   1.0000      -0.922129       -25.0924 
  12   0.0000      -0.668486       -18.1904 
  13   0.0000      -0.462064       -12.5734 
  14   0.0000      -0.237054        -6.4506 
  15   0.0000      -0.218225        -5.9382 
  16   0.0000      -0.182118        -4.9557 
  17   0.0000      -0.180789        -4.9195 
  18   0.0000      -0.173020        -4.7081 
  19   0.0000      -0.153925        -4.1885 
  20   0.0000      -0.153676        -4.1817 
  21   0.0000      -0.128779        -3.5043 
  22   0.0000      -0.125059        -3.4030 
*Only the first 10 virtual orbitals were printed.

                    ********************************
                    * MULLIKEN POPULATION ANALYSIS *
                    ********************************

--------------------------------------------
MULLIKEN ATOMIC CHARGES AND SPIN POPULATIONS
--------------------------------------------
   0 C :    0.025751    0.000000
   1 Cl:    1.000021   -0.000000
   2 H :    0.324739   -0.000000
   3 H :    0.324751    0.000000
   4 H :    0.324738   -0.000000
Sum of atomic charges         :    2.0000000
Sum of atomic spin populations:   -0.0000000

-----------------------------------------------------
MULLIKEN REDUCED ORBITAL CHARGES AND SPIN POPULATIONS
-----------------------------------------------------
CHARGE
  0 C s       :     3.420978  s :     3.420978
      pz      :     1.260227  p :     2.520873
      px      :     0.000105
      py      :     1.260541
      dz2     :     0.010863  d :     0.030412
      dxz     :     0.000024
      dyz     :     0.013063
      dx2y2   :     0.006448
      dxy     :     0.000014
      f0      :     0.001009  f :     0.001985
      f+1     :     0.000000
      f-1     :     0.000208
      f+2     :     0.000650
      f-2     :     0.000000
      f+3     :     0.000000
      f-3     :     0.000118

  1 Cls       :     5.999127  s :     5.999127
      pz      :     3.404057  p :     9.998940
      px      :     3.999330
      py      :     2.595553
      dz2     :     0.000023  d :     0.001060
      dxz     :     0.000035
      dyz     :     0.000593
      dx2y2   :     0.000393
      dxy     :     0.000015
      f0      :     0.000026  f :     0.000851
      f+1     :     0.000006
      f-1     :     0.000343
      f+2     :     0.000002
      f-2     :     0.000225
      f+3     :     0.000192
      f-3     :     0.000058

  2 H s       :     0.646092  s :     0.646092
      pz      :     0.021624  p :     0.029169
      px      :     0.000010
      py      :     0.007534

  3 H s       :     0.646008  s :     0.646008
      pz      :     0.012559  p :     0.029241
      px      :     0.000006
      py      :     0.016676

  4 H s       :     0.646021  s :     0.646021
      pz      :     0.009630  p :     0.029240
      px      :     0.000008
      py      :     0.019602


SPIN
  0 C s       :     0.000000  s :     0.000000
      pz      :     0.000000  p :     0.000000
      px      :     0.000000
      py      :     0.000000
      dz2     :     0.000000  d :     0.000000
      dxz     :     0.000000
      dyz     :     0.000000
      dx2y2   :     0.000000
      dxy     :     0.000000
      f0      :    -0.000000  f :     0.000000
      f+1     :    -0.000000
      f-1     :     0.000000
      f+2     :     0.000000
      f-2     :     0.000000
      f+3     :     0.000000
      f-3     :     0.000000

  1 Cls       :     0.000000  s :     0.000000
      pz      :    -0.000000  p :    -0.000000
      px      :    -0.000000
      py      :     0.000000
      dz2     :     0.000000  d :     0.000000
      dxz     :    -0.000000
      dyz     :    -0.000000
      dx2y2   :     0.000000
      dxy     :     0.000000
      f0      :     0.000000  f :    -0.000000
      f+1     :    -0.000000
      f-1     :     0.000000
      f+2     :    -0.000000
      f-2     :    -0.000000
      f+3     :     0.000000
      f-3     :     0.000000

  2 H s       :    -0.000000  s :    -0.000000
      pz      :    -0.000000  p :    -0.000000
      px      :    -0.000000
      py      :     0.000000

  3 H s       :     0.000000  s :     0.000000
      pz      :     0.000000  p :     0.000000
      px      :    -0.000000
      py      :     0.000000

  4 H s       :    -0.000000  s :    -0.000000
      pz      :    -0.000000  p :    -0.000000
      px      :     0.000000
      py      :    -0.000000



                     *******************************
                     * LOEWDIN POPULATION ANALYSIS *
                     *******************************

-------------------------------------------
LOEWDIN ATOMIC CHARGES AND SPIN POPULATIONS
-------------------------------------------
   0 C :    0.683407   -0.000000
   1 Cl:    1.000010   -0.000000
   2 H :    0.105498    0.000000
   3 H :    0.105572    0.000000
   4 H :    0.105514   -0.000000

----------------------------------------------------
LOEWDIN REDUCED ORBITAL CHARGES AND SPIN POPULATIONS
----------------------------------------------------
CHARGE
  0 C s       :     2.958492  s :     2.958492
      pz      :     1.133415  p :     2.266981
      px      :     0.000087
      py      :     1.133480
      dz2     :     0.030428  d :     0.084309
      dxz     :     0.000028
      dyz     :     0.037447
      dx2y2   :     0.016390
      dxy     :     0.000016
      f0      :     0.002454  f :     0.006811
      f+1     :     0.000001
      f-1     :     0.000483
      f+2     :     0.002183
      f-2     :     0.000000
      f+3     :     0.000000
      f-3     :     0.001690

  1 Cls       :     5.999127  s :     5.999127
      pz      :     3.404057  p :     9.998951
      px      :     3.999341
      py      :     2.595553
      dz2     :     0.000023  d :     0.001061
      dxz     :     0.000035
      dyz     :     0.000593
      dx2y2   :     0.000393
      dxy     :     0.000015
      f0      :     0.000026  f :     0.000851
      f+1     :     0.000006
      f-1     :     0.000343
      f+2     :     0.000002
      f-2     :     0.000225
      f+3     :     0.000192
      f-3     :     0.000058

  2 H s       :     0.704519  s :     0.704519
      pz      :     0.134544  p :     0.189983
      px      :     0.000008
      py      :     0.055431

  3 H s       :     0.704444  s :     0.704444
      pz      :     0.083505  p :     0.189984
      px      :     0.000023
      py      :     0.106456

  4 H s       :     0.704509  s :     0.704509
      pz      :     0.066901  p :     0.189978
      px      :     0.000012
      py      :     0.123065


SPIN
  0 C s       :    -0.000000  s :    -0.000000
      pz      :    -0.000000  p :    -0.000000
      px      :     0.000000
      py      :    -0.000000
      dz2     :     0.000000  d :     0.000000
      dxz     :     0.000000
      dyz     :     0.000000
      dx2y2   :     0.000000
      dxy     :     0.000000
      f0      :    -0.000000  f :    -0.000000
      f+1     :    -0.000000
      f-1     :    -0.000000
      f+2     :    -0.000000
      f-2     :     0.000000
      f+3     :     0.000000
      f-3     :    -0.000000

  1 Cls       :     0.000000  s :     0.000000
      pz      :    -0.000000  p :    -0.000000
      px      :    -0.000000
      py      :     0.000000
      dz2     :     0.000000  d :     0.000000
      dxz     :    -0.000000
      dyz     :    -0.000000
      dx2y2   :     0.000000
      dxy     :    -0.000000
      f0      :     0.000000  f :    -0.000000
      f+1     :    -0.000000
      f-1     :     0.000000
      f+2     :    -0.000000
      f-2     :    -0.000000
      f+3     :     0.000000
      f-3     :     0.000000

  2 H s       :     0.000000  s :     0.000000
      pz      :     0.000000  p :     0.000000
      px      :    -0.000000
      py      :     0.000000

  3 H s       :     0.000000  s :     0.000000
      pz      :     0.000000  p :     0.000000
      px      :    -0.000000
      py      :     0.000000

  4 H s       :    -0.000000  s :    -0.000000
      pz      :     0.000000  p :     0.000000
      px      :     0.000000
      py      :     0.000000



                      *****************************
                      * MAYER POPULATION ANALYSIS *
                      *****************************

  NA   - Mulliken gross atomic population
  ZA   - Total nuclear charge
  QA   - Mulliken gross atomic charge
  VA   - Mayer's total valence
  BVA  - Mayer's bonded valence
  FA   - Mayer's free valence

  ATOM       NA         ZA         QA         VA         BVA        FA
  0 C      5.9742     6.0000     0.0258     2.6637     2.6637    -0.0000
  1 Cl    16.0000    17.0000     1.0000     0.0000     0.0000     0.0000
  2 H      0.6753     1.0000     0.3247     0.9302     0.9302     0.0000
  3 H      0.6752     1.0000     0.3248     0.9304     0.9304     0.0000
  4 H      0.6753     1.0000     0.3247     0.9303     0.9303    -0.0000

  Mayer bond orders larger than 0.100000
B(  0-C ,  2-H ) :   0.8878 B(  0-C ,  3-H ) :   0.8880 B(  0-C ,  4-H ) :   0.8878 


-------
TIMINGS
-------

Total SCF time: 0 days 0 hours 7 min 33 sec 

Total time                  ....     453.224 sec
Sum of individual times     ....     432.959 sec  ( 95.5%)

SCF preparation             ....       5.138 sec  (  1.1%)
Fock matrix formation       ....     219.392 sec  ( 48.4%)
  Startup                   ....      60.348 sec  ( 27.5% of F)
  Split-RI-J                ....      50.882 sec  ( 23.2% of F)
  Chain of spheres X        ....      44.970 sec  ( 20.5% of F)
  XC integration            ....       4.170 sec  (  1.9% of F)
    Basis function eval.    ....       0.067 sec  (  1.6% of XC)
    Density eval.           ....       0.145 sec  (  3.5% of XC)
    XC-Functional eval.     ....       0.151 sec  (  3.6% of XC)
    XC-Potential eval.      ....       0.284 sec  (  6.8% of XC)
Diagonalization             ....       0.000 sec  (  0.0%)
Density matrix formation    ....      80.981 sec  ( 17.9%)
Total Energy calculation    ....      34.122 sec  (  7.5%)
Population analysis         ....      13.011 sec  (  2.9%)
Orbital Transformation      ....      15.423 sec  (  3.4%)
Orbital Orthonormalization  ....       0.000 sec  (  0.0%)
DIIS solution               ....      39.737 sec  (  8.8%)
SOSCF solution              ....      25.117 sec  (  5.5%)
Grid generation             ....       0.038 sec  (  0.0%)
Finished LeanSCF after 460.5 sec

Maximum memory used throughout the entire LEANSCF-calculation: 9.6 MB

-------------------------   --------------------
FINAL SINGLE POINT ENERGY      -498.966877480015
-------------------------   --------------------



           ************************************************************
           *        Program running with 2 parallel MPI-processes     *
           *              working on a common directory               *
           ************************************************************

------------------------------------------------------------------------------
                              ORCA PROPERTY CALCULATIONS
------------------------------------------------------------------------------

GBWName                                 ... orca.gbw
Number of atoms                         ...      5
Number of basis functions               ...    110
Max core memory                         ...   1024 MB

Electric properties:
Dipole moment                           ... YES
Quadrupole moment                       ...  NO
Static polarizability (Dipole/Dipole)   ...  NO
Static polarizability (Dipole/Quad.)    ...  NO
Static polarizability (Quad./Quad.)     ...  NO
Static polarizability (Velocity)        ...  NO

Atomic electric properties:
Dipole moment                           ...  NO
Quadrupole moment                       ...  NO
Static polarizability                   ...  NO

Choice of electric origin               ... Center of mass
Position of electric origin             ...     9.267439    -0.000323    -0.000190

General magnetic properties:
Magnetizability                         ...  NO

EPR properties:
g-Tensor (aka g-matrix)                 ...  NO
Zero-Field splitting spin-orbit         ...  NO
Zero-field splitting spin-spin          ...  NO
Hyperfine couplings                     ...  NO (   0 nuclei)
Quadrupole couplings                    ...  NO (   0 nuclei)
Contact density                         ...  NO (   0 nuclei)

NMR properties:
Chemical shifts                         ...  NO (   0 nuclei)
Spin-rotation constants                 ...  NO (   0 nuclei)
Spin-spin couplings                     ...  NO (   0 nuclei,    0 pairs)

Choice of magnetic origin               ... GIAO
Position of magnetic origin             ...     0.000000     0.000000     0.000000

Properties with geometric perturbations:
SCF Hessian                             ...  NO
IR spectrum                             ...  NO
VCD spectrum                            ...  NO
X-ray spectroscopy properties:
SCF XES/XAS/RIXS spectra                ...  NO


-------------
DIPOLE MOMENT
-------------

Method             : SCF
Type of density    : Electron Density
Multiplicity       :   1
Irrep              :   0
Energy             :  -498.9668774800153415 Eh
Relativity type    : 
Basis              : AO
                                X                 Y                 Z
Electronic contribution:     11.295778078      -0.000545114      -0.000067195
Nuclear contribution   :    -16.631056223       0.000883476       0.000251950
                        -----------------------------------------
Total Dipole Moment    :     -5.335278145       0.000338362       0.000184755
                        -----------------------------------------
Magnitude (a.u.)       :      5.335278159
Magnitude (Debye)      :     13.561199354



--------------------
Rotational spectrum 
--------------------
 
Rotational constants in cm-1:             4.801377             0.032477             0.032477 
Rotational constants in MHz :        143941.673722           973.634151           973.634038 

Dipole components along the rotational axes: 
x,y,z [a.u.] :    -5.335278     0.000026    -0.000009 
x,y,z [Debye]:   -13.561199     0.000066    -0.000023 

 

Dipole moment calculation done in   3.4 sec 

Maximum memory used throughout the entire PROP-calculation: 5.2 MB

         *************************************************************
                               MULTIPLE XYZ STEP   2
         *************************************************************
---------------------------------
CARTESIAN COORDINATES (ANGSTROEM)
---------------------------------
  C      0.009847    0.000108   -0.000013
  Cl     6.908284   -0.000317   -0.000202
  H      0.014151    0.127898   -1.069947
  H      0.002725    0.862784    0.645631
  H      0.009853   -0.990393    0.424291

----------------------------
CARTESIAN COORDINATES (A.U.)
----------------------------
  NO LB      ZA    FRAG     MASS         X           Y           Z
   0 C     6.0000    0    12.011    0.018608    0.000204   -0.000025
   1 Cl   17.0000    0    35.453   13.054765   -0.000599   -0.000382
   2 H     1.0000    0     1.008    0.026742    0.241692   -2.021907
   3 H     1.0000    0     1.008    0.005150    1.630425    1.220066
   4 H     1.0000    0     1.008    0.018619   -1.871572    0.801794

--------------------------------
INTERNAL COORDINATES (ANGSTROEM)
--------------------------------
 C      0   0   0     0.000000000000     0.00000000     0.00000000
 Cl     1   0   0     6.898437015681     0.00000000     0.00000000
 H      1   2   0     1.077547016548    89.77000525     0.00000000
 H      1   2   3     1.077551288151    90.38246185   239.99907883
 H      1   2   3     1.077555620584    89.99705437   119.99999252

---------------------------
INTERNAL COORDINATES (A.U.)
---------------------------
 C      0   0   0     0.000000000000     0.00000000     0.00000000
 Cl     1   0   0    13.036156711742     0.00000000     0.00000000
 H      1   2   0     2.036268757700    89.77000525     0.00000000
 H      1   2   3     2.036276829860    90.38246185   239.99907883
 H      1   2   3     2.036285016972    89.99705437   119.99999252



           ************************************************************
           *        Program running with 2 parallel MPI-processes     *
           *              working on a common directory               *
           ************************************************************
------------------------------------------------------------------------------
                   ___                                                        
                  /   \      - P O W E R E D   B Y -                         
                 /     \                                                     
                 |  |  |   _    _      __       _____    __    __             
                 |  |  |  | |  | |    /  \     |  _  \  |  |  /  |          
                  \  \/   | |  | |   /    \    | | | |  |  | /  /          
                 / \  \   | |__| |  /  /\  \   | |_| |  |  |/  /          
                |  |  |   |  __  | /  /__\  \  |    /   |      \           
                |  |  |   | |  | | |   __   |  |    \   |  |\   \          
                \     /   | |  | | |  |  |  |  | |\  \  |  | \   \       
                 \___/    |_|  |_| |__|  |__|  |_| \__\ |__|  \__/        
                                                                              
                      - O R C A' S   B I G   F R I E N D -                    
                                      &                                       
                       - I N T E G R A L  F E E D E R -                       
                                                                              
 v1 FN, 2020, v2 2021, v3 2022-2024                                           
------------------------------------------------------------------------------


----------------------
SHARK INTEGRAL PACKAGE
----------------------

Number of atoms                             ...      5
Number of basis functions                   ...    110
Number of shells                            ...     44
Maximum angular momentum                    ...      3
Integral batch strategy                     ... SHARK/LIBINT Hybrid
RI-J (if used) integral strategy            ... SPLIT-RIJ (Revised 2003 algorithm where possible)
Printlevel                                  ...      1
Contraction scheme used                     ... SEGMENTED contraction
Prescreening option                         ... SCHWARTZ
   Thresh                                   ... 1.000e-10
   Tcut                                     ... 1.000e-11
   Tpresel                                  ... 1.000e-11 
Coulomb Range Separation                    ... NOT USED
Exchange Range Separation                   ... Long Range
   Mu parameter                             ... 3.000e-01
   Scaling (regular/separated)              ... 1.500e-01 8.500e-01
Multipole approximations                    ... NOT USED
Finite Nucleus Model                        ... NOT USED
CABS basis                                  ... NOT available
Auxiliary Coulomb fitting basis             ... AVAILABLE
   # of basis functions in Aux-J            ...    133
   # of shells in Aux-J                     ...     47
   Maximum angular momentum in Aux-J        ...      4
Auxiliary J/K fitting basis                 ... NOT available
Auxiliary Correlation fitting basis         ... NOT available
Auxiliary 'external' fitting basis          ... NOT available

Checking pre-screening integrals            ... done (  1.1 sec) Dimension = 44
Check shell pair data                       ... done (  0.3 sec)
Shell pair information
Shell pair cut-off parameter TPreSel        ...   1.0e-11
Total number of shell pairs                 ...       990
Shell pairs after pre-screening             ...       793
Total number of primitive shell pairs       ...      2768
Primitive shell pairs kept                  ...      1892
          la=0 lb=0:    186 shell pairs
          la=1 lb=0:    256 shell pairs
          la=1 lb=1:    101 shell pairs
          la=2 lb=0:     99 shell pairs
          la=2 lb=1:     74 shell pairs
          la=2 lb=2:     18 shell pairs
          la=3 lb=0:     28 shell pairs
          la=3 lb=1:     21 shell pairs
          la=3 lb=2:      8 shell pairs
          la=3 lb=3:      2 shell pairs

Calculating one electron integrals          ... done (  0.0 sec)
Calculating RI/J V-Matrix + Cholesky decomp.... done (  0.0 sec)
Calculating Nuclear repulsion               ... done (  0.0 sec) ENN=     21.379466472136 Eh

Diagonalization of the overlap matrix:
Smallest eigenvalue                        ... 6.587e-05
Time for diagonalization                   ...    0.001 sec
Threshold for overlap eigenvalues          ... 1.000e-07
Number of eigenvalues below threshold      ... 0
Time for construction of square roots      ...    0.010 sec
Total time needed                          ...    0.268 sec

-------------------
DFT GRID GENERATION
-------------------

General Integration Accuracy     IntAcc      ... 4.388
Radial Grid Type                 RadialGrid  ... OptM3 with GC (2021)
Angular Grid (max. ang.)         AngularGrid ... 4 (Lebedev-302)
Angular grid pruning method      GridPruning ... 4 (adaptive)
Weight generation scheme         WeightScheme... mBecke (2022)
Basis function cutoff            BFCut       ... 1.0000e-10
Integration weight cutoff        WCut        ... 1.0000e-14
Partially contracted basis set               ... off
Rotationally invariant grid construction     ... off
Angular grids for H and He will be reduced by one unit
Diffuse basis detected: some atoms will have their outermost
                        angular grid increased by 1.

Total number of grid points                  ...    24728
Total number of batches                      ...      389
Average number of points per batch           ...       63
Average number of grid points per atom       ...     4946

--------------------
COSX GRID GENERATION
--------------------

GRIDX 1
-------
General Integration Accuracy     IntAcc      ... 3.816
Radial Grid Type                 RadialGrid  ... OptM3 with GC (2021)
Angular Grid (max. ang.)         AngularGrid ... 1 (Lebedev-50)
Angular grid pruning method      GridPruning ... 4 (adaptive)
Weight generation scheme         WeightScheme... mBecke (2022)
Basis function cutoff            BFCut       ... 1.0000e-10
Integration weight cutoff        WCut        ... 1.0000e-14
Partially contracted basis set               ... on
Rotationally invariant grid construction     ... off
Angular grids for H and He will be reduced by one unit
Diffuse basis detected: some atoms will have their outermost
                        angular grid increased by 1.

Total number of grid points                  ...     4363
Total number of batches                      ...       37
Average number of points per batch           ...      117
Average number of grid points per atom       ...      873
UseSFitting                                  ... on

GRIDX 2
-------
General Integration Accuracy     IntAcc      ... 4.020
Radial Grid Type                 RadialGrid  ... OptM3 with GC (2021)
Angular Grid (max. ang.)         AngularGrid ... 2 (Lebedev-110)
Angular grid pruning method      GridPruning ... 4 (adaptive)
Weight generation scheme         WeightScheme... mBecke (2022)
Basis function cutoff            BFCut       ... 1.0000e-10
Integration weight cutoff        WCut        ... 1.0000e-14
Partially contracted basis set               ... on
Rotationally invariant grid construction     ... off
Angular grids for H and He will be reduced by one unit
Diffuse basis detected: some atoms will have their outermost
                        angular grid increased by 1.

Total number of grid points                  ...     7257
Total number of batches                      ...       60
Average number of points per batch           ...      120
Average number of grid points per atom       ...     1451
UseSFitting                                  ... on

GRIDX 3
-------
General Integration Accuracy     IntAcc      ... 4.338
Radial Grid Type                 RadialGrid  ... OptM3 with GC (2021)
Angular Grid (max. ang.)         AngularGrid ... 3 (Lebedev-194)
Angular grid pruning method      GridPruning ... 4 (adaptive)
Weight generation scheme         WeightScheme... mBecke (2022)
Basis function cutoff            BFCut       ... 1.0000e-10
Integration weight cutoff        WCut        ... 1.0000e-14
Partially contracted basis set               ... on
Rotationally invariant grid construction     ... off
Angular grids for H and He will be reduced by one unit
Diffuse basis detected: some atoms will have their outermost
                        angular grid increased by 1.

Total number of grid points                  ...    17322
Total number of batches                      ...      139
Average number of points per batch           ...      124
Average number of grid points per atom       ...     3464
UseSFitting                                  ... on
Initializing property integral containers    ... done (  0.3 sec)

SHARK setup successfully completed in   6.3 seconds

Maximum memory used throughout the entire STARTUP-calculation: 15.4 MB


           ************************************************************
           *        Program running with 2 parallel MPI-processes     *
           *              working on a common directory               *
           ************************************************************
             **** ENERGY FILE WAS UPDATED (orca.en.tmp) ****
Finished Guess after  22.4 sec
Maximum memory used throughout the entire GUESS-calculation: 8.5 MB


           ************************************************************
           *        Program running with 2 parallel MPI-processes     *
           *              working on a common directory               *
           ************************************************************
----------------------------------------D-I-I-S--------------------------------------------
Iteration    Energy (Eh)           Delta-E    RMSDP     MaxDP     DIISErr   Damp  Time(sec)
-------------------------------------------------------------------------------------------
               ***  Starting incremental Fock matrix formation  ***
                              *** Initializing SOSCF ***
---------------------------------------S-O-S-C-F--------------------------------------
Iteration    Energy (Eh)           Delta-E    RMSDP     MaxDP     MaxGrad    Time(sec)
--------------------------------------------------------------------------------------
    1    -499.0700678994659825     0.00e+00  2.30e-05  9.41e-04  2.69e-05    53.2
               *** Restarting incremental Fock matrix formation ***
    2    -499.0700682370464278    -3.38e-07  5.66e-06  1.87e-04  3.36e-05    49.0
    3    -499.0700682629612288    -2.59e-08  1.22e-06  3.23e-05  1.82e-05    47.1
                 **** Energy Check signals convergence ****

               *****************************************************
               *                     SUCCESS                       *
               *           SCF CONVERGED AFTER   3 CYCLES          *
               *****************************************************


------------------
NL GRID GENERATION
------------------

General Integration Accuracy     IntAcc      ... 4.004
Radial Grid Type                 RadialGrid  ... OptM3 with GC (2021)
Angular Grid (max. ang.)         AngularGrid ... 2 (Lebedev-110)
Angular grid pruning method      GridPruning ... 4 (adaptive)
Weight generation scheme         WeightScheme... mBecke (2022)
Basis function cutoff            BFCut       ... 1.0000e-10
Integration weight cutoff        WCut        ... 1.0000e-14
Partially contracted basis set               ... off
Rotationally invariant grid construction     ... off
Angular grids for H and He will be reduced by one unit
Diffuse basis detected: some atoms will have their outermost
                        angular grid increased by 1.

Total number of grid points                  ...     8465
Total number of batches                      ...      135
Average number of points per batch           ...       62
Average number of grid points per atom       ...     1693
Final grid set up in    0.0 sec

-------------------------------------------------------------------------------
                    post-SCF DFT-NL dispersion correction                      
-------------------------------------------------------------------------------

SCF Energy:     -499.070068263 
NL    Energy:      0.104244097 
SC+NL Energy:   -498.965824166 
NL done in  :              0.6 sec
-------------------------------------------------------------------------------
Recomputing exchange energy using gridx3       ... done (    4.112 sec)
Old exchange energy                            :     -8.239285486 Eh
New exchange energy                            :     -8.239284209 Eh
Exchange energy change after final integration :      0.000001277 Eh
Total energy after final integration           :   -498.965822889 Eh
             **** ENERGY FILE WAS UPDATED (orca.en.tmp) ****

----------------
TOTAL SCF ENERGY
----------------

Total Energy       :       -498.96582288946126 Eh          -13577.55031 eV

Components:
Nuclear Repulsion  :         21.37946647213592 Eh             581.76486 eV
Electronic Energy  :       -520.44953473509713 Eh          -14162.15183 eV
One Electron Energy:       -716.77892101105112 Eh          -19504.54603 eV
Two Electron Energy:        196.32938627595399 Eh            5342.39420 eV

Virial components:
Potential Energy   :       -997.22316610839289 Eh          -27135.82191 eV
Kinetic Energy     :        498.25734321893162 Eh           13558.27160 eV
Virial Ratio       :          2.00142191516125

DFT components:
N(Alpha)           :       11.999925921950 electrons
N(Beta)            :       11.999925921950 electrons
N(Total)           :       23.999851843900 electrons
NL Energy, E(C,NL) :        0.104244096887 Eh       
E(XC)              :      -25.741482938419 Eh       

---------------
SCF CONVERGENCE
---------------

  Last Energy change         ...    2.5915e-08  Tolerance :   1.0000e-06
  Last MAX-Density change    ...    3.2323e-05  Tolerance :   1.0000e-05
  Last RMS-Density change    ...    1.2158e-06  Tolerance :   1.0000e-06
  Last DIIS Error            ...    5.6781e-04  Tolerance :   1.0000e-06
  Last Orbital Gradient      ...    1.8176e-05  Tolerance :   5.0000e-05
  Last Orbital Rotation      ...    5.4302e-05  Tolerance :   5.0000e-05


----------------------
UHF SPIN CONTAMINATION
----------------------

Warning: in a DFT calculation there is little theoretical justification to 
         calculate <S**2> as in Hartree-Fock theory. We will do it anyways
         but you should keep in mind that the values have only limited relevance

Expectation value of <S**2>     :     0.000000
Ideal value S*(S+1) for S=0.0   :     0.000000
Deviation                       :     0.000000

Total SCF time: 0 days 0 hours 2 min 59 sec 
Finished LeanSCF after 187.1 sec

Maximum memory used throughout the entire LEANSCF-calculation: 9.8 MB

-------------------------   --------------------
FINAL SINGLE POINT ENERGY      -498.965822889461
-------------------------   --------------------



           ************************************************************
           *        Program running with 2 parallel MPI-processes     *
           *              working on a common directory               *
           ************************************************************

------------------------------------------------------------------------------
                              ORCA PROPERTY CALCULATIONS
------------------------------------------------------------------------------

GBWName                                 ... orca.gbw
Number of atoms                         ...      5
Number of basis functions               ...    110
Max core memory                         ...   1024 MB

Electric properties:
Dipole moment                           ... YES
Quadrupole moment                       ...  NO
Static polarizability (Dipole/Dipole)   ...  NO
Static polarizability (Dipole/Quad.)    ...  NO
Static polarizability (Quad./Quad.)     ...  NO
Static polarizability (Velocity)        ...  NO

Atomic electric properties:
Dipole moment                           ...  NO
Quadrupole moment                       ...  NO
Static polarizability                   ...  NO

Choice of electric origin               ... Center of mass
Position of electric origin             ...     9.172576    -0.000361    -0.000275

General magnetic properties:
Magnetizability                         ...  NO

EPR properties:
g-Tensor (aka g-matrix)                 ...  NO
Zero-Field splitting spin-orbit         ...  NO
Zero-field splitting spin-spin          ...  NO
Hyperfine couplings                     ...  NO (   0 nuclei)
Quadrupole couplings                    ...  NO (   0 nuclei)
Contact density                         ...  NO (   0 nuclei)

NMR properties:
Chemical shifts                         ...  NO (   0 nuclei)
Spin-rotation constants                 ...  NO (   0 nuclei)
Spin-spin couplings                     ...  NO (   0 nuclei,    0 pairs)

Choice of magnetic origin               ... GIAO
Position of magnetic origin             ...     0.000000     0.000000     0.000000

Properties with geometric perturbations:
SCF Hessian                             ...  NO
IR spectrum                             ...  NO
VCD spectrum                            ...  NO
X-ray spectroscopy properties:
SCF XES/XAS/RIXS spectra                ...  NO


-------------
DIPOLE MOMENT
-------------

Method             : SCF
Type of density    : Electron Density
Multiplicity       :   1
Irrep              :   0
Energy             :  -498.9658228894612648 Eh
Relativity type    : 
Basis              : AO
                                X                 Y                 Z
Electronic contribution:     11.136041072      -0.000602116      -0.000200303
Nuclear contribution   :    -16.393802888       0.000978027       0.000461802
                        -----------------------------------------
Total Dipole Moment    :     -5.257761816       0.000375911       0.000261500
                        -----------------------------------------
Magnitude (a.u.)       :      5.257761836
Magnitude (Debye)      :     13.364168519



--------------------
Rotational spectrum 
--------------------
 
Rotational constants in cm-1:             4.801180             0.033434             0.033434 
Rotational constants in MHz :        143935.762543          1002.326869          1002.326783 

Dipole components along the rotational axes: 
x,y,z [a.u.] :     5.257762    -0.000019    -0.000005 
x,y,z [Debye]:    13.364169    -0.000049    -0.000013 

 

Dipole moment calculation done in   3.0 sec 

Maximum memory used throughout the entire PROP-calculation: 5.3 MB

         *************************************************************
                               MULTIPLE XYZ STEP   3
         *************************************************************
---------------------------------
CARTESIAN COORDINATES (ANGSTROEM)
---------------------------------
  C      0.030218    0.000116    0.000007
  Cl     6.827093   -0.000349   -0.000281
  H      0.034747    0.127908   -1.069927
  H      0.022669    0.862792    0.645649
  H      0.030133   -0.990387    0.424312

----------------------------
CARTESIAN COORDINATES (A.U.)
----------------------------
  NO LB      ZA    FRAG     MASS         X           Y           Z
   0 C     6.0000    0    12.011    0.057104    0.000219    0.000013
   1 Cl   17.0000    0    35.453   12.901336   -0.000660   -0.000531
   2 H     1.0000    0     1.008    0.065662    0.241711   -2.021869
   3 H     1.0000    0     1.008    0.042838    1.630441    1.220100
   4 H     1.0000    0     1.008    0.056943   -1.871560    0.801833

--------------------------------
INTERNAL COORDINATES (ANGSTROEM)
--------------------------------
 C      0   0   0     0.000000000000     0.00000000     0.00000000
 Cl     1   0   0     6.796875022008     0.00000000     0.00000000
 H      1   2   0     1.077548175935    89.75723592     0.00000000
 H      1   2   3     1.077552996628    90.40599256   239.99927528
 H      1   2   3     1.077557856108    90.00187244   120.00010768

---------------------------
INTERNAL COORDINATES (A.U.)
---------------------------
 C      0   0   0     0.000000000000     0.00000000     0.00000000
 Cl     1   0   0    12.844232358085     0.00000000     0.00000000
 H      1   2   0     2.036270948624    89.75723592     0.00000000
 H      1   2   3     2.036280058412    90.40599256   239.99927528
 H      1   2   3     2.036289241499    90.00187244   120.00010768



           ************************************************************
           *        Program running with 2 parallel MPI-processes     *
           *              working on a common directory               *
           ************************************************************
------------------------------------------------------------------------------
                   ___                                                        
                  /   \      - P O W E R E D   B Y -                         
                 /     \                                                     
                 |  |  |   _    _      __       _____    __    __             
                 |  |  |  | |  | |    /  \     |  _  \  |  |  /  |          
                  \  \/   | |  | |   /    \    | | | |  |  | /  /          
[...]
    4    -490.9769456898640101    -3.64e-01  5.23e-03  1.12e-01  2.33e-01  0.700  57.1
                               ***Turning on AO-DIIS***
    5    -491.2462792698147496    -2.69e-01  3.23e-03  5.04e-02  1.66e-01  0.700  54.3
    6    -491.4435043987022027    -1.97e-01  2.68e-03  4.95e-02  1.17e-01  0.700  50.8
    7    -491.5874834485939573    -1.44e-01  2.03e-03  3.79e-02  8.24e-02  0.700  45.1
    8    -491.6919247189166526    -1.04e-01  4.79e-03  7.98e-02  5.79e-02  0.000  47.4
    9    -491.9526276083072389    -2.61e-01  8.46e-04  1.40e-02  6.17e-03  0.000  51.0
   10    -491.9547585252073532    -2.13e-03  7.08e-04  1.57e-02  4.67e-03  0.000  45.1
   11    -491.9561359102419829    -1.38e-03  6.60e-04  9.75e-03  3.79e-03  0.000  44.3
                              *** Initializing SOSCF ***
---------------------------------------S-O-S-C-F--------------------------------------
Iteration    Energy (Eh)           Delta-E    RMSDP     MaxDP     MaxGrad    Time(sec)
--------------------------------------------------------------------------------------
   12    -491.9572457281610696    -1.11e-03  4.90e-04  6.76e-03  2.67e-03    53.9
               *** Restarting incremental Fock matrix formation ***
   13    -491.9579356829960943    -6.90e-04  5.23e-04  1.31e-02  4.72e-03    44.7
               *** Scaled step length from 0.377905 to 0.200000 ***
   14    -491.9585075328700441    -5.72e-04  2.46e-03  4.48e-02  3.36e-03    47.5
   15    -491.9599954411886529    -1.49e-03  1.28e-03  3.50e-02  5.44e-03    56.3
   16    -491.9606858459533214    -6.90e-04  5.12e-04  1.19e-02  4.25e-03    50.7
   17    -491.9610371526961217    -3.51e-04  1.21e-03  4.10e-02  2.53e-03    48.9
   18    -491.9613332956607792    -2.96e-04  5.04e-04  9.48e-03  1.79e-03    49.5
   19    -491.9614502284323407    -1.17e-04  2.14e-04  4.31e-03  1.37e-03    46.1
   20    -491.9614826831988239    -3.25e-05  5.60e-04  1.30e-02  1.34e-03    51.6
   21    -491.9615477978611580    -6.51e-05  1.06e-03  2.54e-02  1.23e-03    50.8
   22    -491.9616509330927556    -1.03e-04  1.95e-03  4.48e-02  1.55e-03    45.2
   23    -491.9618041720631254    -1.53e-04  1.33e-03  2.98e-02  3.41e-03    45.4
   24    -491.9619860321731721    -1.82e-04  1.54e-03  3.78e-02  3.53e-03    50.8
   25    -491.9622413078567433    -2.55e-04  8.54e-04  2.18e-02  2.36e-03    49.4
   26    -491.9623304700953668    -8.92e-05  1.67e-03  4.34e-02  1.74e-03    54.1
   27    -491.9624651471506240    -1.35e-04  1.09e-03  2.51e-02  1.30e-03    53.0
               *** Scaled step length from 0.216876 to 0.200000 ***
   28    -491.9625355214647016    -7.04e-05  3.38e-03  9.44e-02  1.52e-03    55.3
   29    -491.9622753599825273     2.60e-04  2.91e-03  8.12e-02  4.50e-03    46.3
   30    -491.9625758911554385    -3.01e-04  2.98e-04  7.68e-03  5.60e-04    49.9
   31    -491.9625844741096898    -8.58e-06  4.40e-04  1.10e-02  2.97e-04    56.0
   32    -491.9625887351961637    -4.26e-06  1.17e-05  2.21e-04  1.43e-04    49.4
               *** Restarting incremental Fock matrix formation ***
   33    -491.9625891674712648    -4.32e-07  4.17e-05  8.78e-04  1.17e-04    46.1
                 **** Energy Check signals convergence ****

               *****************************************************
               *                     SUCCESS                       *
               *           SCF CONVERGED AFTER  33 CYCLES          *
               *****************************************************


------------------
NL GRID GENERATION
------------------

General Integration Accuracy     IntAcc      ... 4.004
Radial Grid Type                 RadialGrid  ... OptM3 with GC (2021)
Angular Grid (max. ang.)         AngularGrid ... 2 (Lebedev-110)
Angular grid pruning method      GridPruning ... 4 (adaptive)
Weight generation scheme         WeightScheme... mBecke (2022)
Basis function cutoff            BFCut       ... 1.0000e-10
Integration weight cutoff        WCut        ... 1.0000e-14
Partially contracted basis set               ... off
Rotationally invariant grid construction     ... off
Angular grids for H and He will be reduced by one unit
Diffuse basis detected: some atoms will have their outermost
                        angular grid increased by 1.

Total number of grid points                  ...     8473
Total number of batches                      ...      135
Average number of points per batch           ...       62
Average number of grid points per atom       ...     1695
Final grid set up in    0.0 sec

-------------------------------------------------------------------------------
                    post-SCF DFT-NL dispersion correction                      
-------------------------------------------------------------------------------

SCF Energy:     -491.962589167 
NL    Energy:      0.102110136 
SC+NL Energy:   -491.860479032 
NL done in  :              1.1 sec
-------------------------------------------------------------------------------
Recomputing exchange energy using gridx3       ... done (    3.017 sec)
Old exchange energy                            :     -8.397744024 Eh
New exchange energy                            :     -8.397693649 Eh
Exchange energy change after final integration :      0.000050375 Eh
Total energy after final integration           :   -491.860428657 Eh
             **** ENERGY FILE WAS UPDATED (orca.en.tmp) ****

----------------
TOTAL SCF ENERGY
----------------

Total Energy       :       -491.86042865663177 Eh          -13384.20270 eV

Components:
Nuclear Repulsion  :        103.48779945179068 Eh            2816.04619 eV
Electronic Energy  :       -595.45038861926196 Eh          -16203.02882 eV
One Electron Energy:       -855.03037327145421 Eh          -23266.55931 eV
Two Electron Energy:        259.57998465219225 Eh            7063.53049 eV

Virial components:
Potential Energy   :      -1001.83205321789046 Eh          -27261.23610 eV
Kinetic Energy     :        509.97162456125875 Eh           13877.03340 eV
Virial Ratio       :          1.96448587522843

DFT components:
N(Alpha)           :       12.000018103530 electrons
N(Beta)            :       11.999981547999 electrons
N(Total)           :       23.999999651529 electrons
NL Energy, E(C,NL) :        0.102110135658 Eh       
E(XC)              :      -26.791225985043 Eh       

---------------
SCF CONVERGENCE
---------------

  Last Energy change         ...    4.3228e-07  Tolerance :   1.0000e-06
  Last MAX-Density change    ...    8.7791e-04  Tolerance :   1.0000e-05
  Last RMS-Density change    ...    4.1746e-05  Tolerance :   1.0000e-06
  Last DIIS Error            ...    2.6678e-03  Tolerance :   1.0000e-06
  Last Orbital Gradient      ...    1.1651e-04  Tolerance :   5.0000e-05
  Last Orbital Rotation      ...    1.7521e-03  Tolerance :   5.0000e-05


----------------------
UHF SPIN CONTAMINATION
----------------------

Warning: in a DFT calculation there is little theoretical justification to 
         calculate <S**2> as in Hartree-Fock theory. We will do it anyways
         but you should keep in mind that the values have only limited relevance

Expectation value of <S**2>     :     1.001689
Ideal value S*(S+1) for S=0.0   :     0.000000
Deviation                       :     1.001689

Total SCF time: 0 days 0 hours 28 min 7 sec 
Finished LeanSCF after 1693.8 sec

Maximum memory used throughout the entire LEANSCF-calculation: 20.2 MB

-------------------------   --------------------
FINAL SINGLE POINT ENERGY      -491.860428656632
-------------------------   --------------------



           ************************************************************
           *        Program running with 2 parallel MPI-processes     *
           *              working on a common directory               *
           ************************************************************

------------------------------------------------------------------------------
                              ORCA PROPERTY CALCULATIONS
------------------------------------------------------------------------------

GBWName                                 ... orca.gbw
Number of atoms                         ...      5
Number of basis functions               ...    110
Max core memory                         ...   1024 MB

Electric properties:
Dipole moment                           ... YES
Quadrupole moment                       ...  NO
Static polarizability (Dipole/Dipole)   ...  NO
Static polarizability (Dipole/Quad.)    ...  NO
Static polarizability (Quad./Quad.)     ...  NO
Static polarizability (Velocity)        ...  NO

Atomic electric properties:
Dipole moment                           ...  NO
Quadrupole moment                       ...  NO
Static polarizability                   ...  NO

Choice of electric origin               ... Center of mass
Position of electric origin             ...     5.379802     0.177124     0.017548

General magnetic properties:
Magnetizability                         ...  NO

EPR properties:
g-Tensor (aka g-matrix)                 ...  NO
Zero-Field splitting spin-orbit         ...  NO
Zero-field splitting spin-spin          ...  NO
Hyperfine couplings                     ...  NO (   0 nuclei)
Quadrupole couplings                    ...  NO (   0 nuclei)
Contact density                         ...  NO (   0 nuclei)

NMR properties:
Chemical shifts                         ...  NO (   0 nuclei)
Spin-rotation constants                 ...  NO (   0 nuclei)
Spin-spin couplings                     ...  NO (   0 nuclei,    0 pairs)

Choice of magnetic origin               ... GIAO
Position of magnetic origin             ...     0.000000     0.000000     0.000000

Properties with geometric perturbations:
SCF Hessian                             ...  NO
IR spectrum                             ...  NO
VCD spectrum                            ...  NO
X-ray spectroscopy properties:
SCF XES/XAS/RIXS spectra                ...  NO


-------------
DIPOLE MOMENT
-------------

Method             : SCF
Type of density    : Electron Density
Multiplicity       :   1
Irrep              :   0
Energy             :  -491.8604286566317683 Eh
Relativity type    : 
Basis              : AO
                                X                 Y                 Z
Electronic contribution:      3.804225909      -0.359885715       2.150496942
Nuclear contribution   :     -7.298172676      -0.405789981      -0.017146373
                        -----------------------------------------
Total Dipole Moment    :     -3.493946767      -0.765675695       2.133350568
                        -----------------------------------------
Magnitude (a.u.)       :      4.164745842
Magnitude (Debye)      :     10.585942652



--------------------
Rotational spectrum 
--------------------
 
Rotational constants in cm-1:             1.125793             0.582080             0.471710 
Rotational constants in MHz :         33750.435059         17450.320338         14141.511275 

Dipole components along the rotational axes: 
x,y,z [a.u.] :    -3.685144    -1.904462     0.371281 
x,y,z [Debye]:    -9.366891    -4.840757     0.943722 

 

Dipole moment calculation done in   4.0 sec 

Maximum memory used throughout the entire PROP-calculation: 13.1 MB
                              **** MULTIPLE XYZ DONE ***

                         SUMMARY OF THE CALCULATED SURFACE

-------------------------
MULTIPLE XYZ SCAN RESULTS
-------------------------

The Calculated Surface using the 'Actual Energy'
   1.00000000 -498.96687748
   2.00000000 -498.96582289
   3.00000000 -498.96473350
   4.00000000 -498.96361324
   5.00000000 -498.96246086
   6.00000000 -498.96127490
   7.00000000 -498.96005415
   8.00000000 -498.95879702
   9.00000000 -498.95750221
  10.00000000 -498.95616832
  11.00000000 -498.95479392
  12.00000000 -498.95337759
  13.00000000 -498.95191734
  14.00000000 -498.95040980
  15.00000000 -498.94885019
  16.00000000 -498.94723332
  17.00000000 -498.94555523
  18.00000000 -498.94381352
  19.00000000 -498.94200835
  20.00000000 -498.94014124
  21.00000000 -498.93821380
  22.00000000 -498.93622547
  23.00000000 -498.93417457
  24.00000000 -498.93205452
  25.00000000 -498.92985691
  26.00000000 -498.92757362
  27.00000000 -498.92519483
  28.00000000 -498.92271471
  29.00000000 -498.92013715
  30.00000000 -498.91745690
  31.00000000 -498.91468747
  32.00000000 -498.91181295
  33.00000000 -498.95691626
  34.00000000 -498.95382172
  35.00000000 -498.95060090
  36.00000000 -498.94727599
  37.00000000 -498.94383206
  38.00000000 -498.94029450
  39.00000000 -498.93665230
  40.00000000 -498.93290458
  41.00000000 -498.92906036
  42.00000000 -498.92511749
  43.00000000 -498.92103827
  44.00000000 -498.91682706
  45.00000000 -498.91269144
  46.00000000 -498.90878202
  47.00000000 -498.90549954
  48.00000000 -498.90352237
  49.00000000 -498.90381803
  50.00000000 -498.90728024
  51.00000000 -498.91415471
  52.00000000 -498.92334469
  53.00000000 -498.93220289
  54.00000000 -498.93633055
  55.00000000 -498.92901428
  56.00000000 -498.89989193
  57.00000000 -498.83265921
  58.00000000 -498.70118956
  59.00000000 -498.46315957
  60.00000000 -498.05004825
  61.00000000 -497.35193921
  62.00000000 -496.20315569
  63.00000000 -494.40427935
  64.00000000 -491.86042866

The Calculated Surface using the SCF energy
   1.00000000 -498.96687748
   2.00000000 -498.96582289
   3.00000000 -498.96473350
   4.00000000 -498.96361324
   5.00000000 -498.96246086
   6.00000000 -498.96127490
   7.00000000 -498.96005415
   8.00000000 -498.95879702
   9.00000000 -498.95750221
  10.00000000 -498.95616832
  11.00000000 -498.95479392
  12.00000000 -498.95337759
  13.00000000 -498.95191734
  14.00000000 -498.95040980
  15.00000000 -498.94885019
  16.00000000 -498.94723332
  17.00000000 -498.94555523
  18.00000000 -498.94381352
  19.00000000 -498.94200835
  20.00000000 -498.94014124
  21.00000000 -498.93821380
  22.00000000 -498.93622547
  23.00000000 -498.93417457
  24.00000000 -498.93205452
  25.00000000 -498.92985691
  26.00000000 -498.92757362
  27.00000000 -498.92519483
  28.00000000 -498.92271471
  29.00000000 -498.92013715
  30.00000000 -498.91745690
  31.00000000 -498.91468747
  32.00000000 -498.91181295
  33.00000000 -498.95691626
  34.00000000 -498.95382172
  35.00000000 -498.95060090
  36.00000000 -498.94727599
  37.00000000 -498.94383206
  38.00000000 -498.94029450
  39.00000000 -498.93665230
  40.00000000 -498.93290458
  41.00000000 -498.92906036
  42.00000000 -498.92511749
  43.00000000 -498.92103827
  44.00000000 -498.91682706
  45.00000000 -498.91269144
  46.00000000 -498.90878202
  47.00000000 -498.90549954
  48.00000000 -498.90352237
  49.00000000 -498.90381803
  50.00000000 -498.90728024
  51.00000000 -498.91415471
  52.00000000 -498.92334469
  53.00000000 -498.93220289
  54.00000000 -498.93633055
  55.00000000 -498.92901428
  56.00000000 -498.89989193
  57.00000000 -498.83265921
  58.00000000 -498.70118956
  59.00000000 -498.46315957
  60.00000000 -498.05004825
  61.00000000 -497.35193921
  62.00000000 -496.20315569
  63.00000000 -494.40427935
  64.00000000 -491.86042866


--------------------------------
SUGGESTED CITATIONS FOR THIS RUN
--------------------------------

Below you find a list of papers that are relevant to this ORCA run
We neither can nor want to force you to cite these papers, but we appreciate if you do
You receive ORCA, which is the product of decades of hard work by many enthusiastic individuals, for free
The only thing we kindly ask in return is that you cite our papers,
We deeply appreciate it, if you show your appreciation for ORCA by not just citing the generic ORCA reference.

Please note that relegating all ORCA citations to the supporting information does *not* help us.
SI sections are not indexed - citations you put there will not count into any citation statistics
But we need these citations in order to attract the funding resources that allow us to do what we are doing

Therefore, if you are a happy ORCA user, please consider citing a few of the papers listed below in the main body of your paper

In addition to the list printed below, the program has created the file orca.bibtex that contains the list in bibtex format
You can import this file easily into all common literature databanks and citation aid programs


List of essential papers. We consider these as the minimum necessary citations

  1. Neese,F.
     Software update: the ORCA program system, version 5.0
     WIRES Comput. Molec. Sci., 2022 12(1)e1606
     doi.org/10.1002/wcms.1606

List of papers to cite with high priority. The work reported in these papers was absolutely
necessary for this run to complete.
Our perspective: the developers of density functionals and basis sets usually get cited in chemistry papers
Good! But without the algorithms to do something with them, the functionals or basis sets would not do anything.
Hence, in our opinion, the algorithm design and method developments papers are equally worthy of getting cited

  1. Neese,F.
     An improvement of the resolution of the identity approximation for the formation of the Coulomb matrix
     J. Comp. Chem., 2003 24(14)1740-1747
     doi.org/10.1002/jcc.10318
  2. Neese,F.; Wennmohs,F.; Hansen,A.; Becker,U.
     Efficient, approximate and parallel Hartree-Fock and hybrid DFT calculations. A 'chain-of-spheres' algorithm for the Hartree-Fock exchange
     Chem. Phys., 2009 356(1-3)98-109
     doi.org/10.1016/j.chemphys.2008.10.036
  3. Helmich-Paris,B.; de Souza,B.; Neese,F.; Izsák,R.
     An improved chain of spheres for exchange algorithm
     J. Chem. Phys., 2021 155 104109
     doi.org/doi: 10.1063/5.0058766.
  4. Neese,F.
     The SHARK Integral Generation and Digestion System
     J. Comp. Chem., 2022  1-16
     doi.org/10.1002/jcc.26942
  5. Lehtola,S.; Steigemann,C.; Oliveira,M.; Marques,M.
     Recent developments in Libxc - A comprehensive library of functionals for density functional theory
     Software X, 2018 7 
     doi.org/10.1016/j.softx.2017.11.002

List of suggested additional citations. These are papers that are important in the 'surrounding' of 
of this run, or papers that preceded the highly important papers. If you like your results we are grateful for a citation.

  1. Izsak,R.; Neese,F.
     An overlap fitted chain of spheres exchange method
     J. Chem. Phys., 2011 135 144105
     doi.org/10.1063/1.3646921
  2. Izsak,R.; Hansen,A.; Neese,F.
     The resolution of identity and chain of spheres approximations for the LPNO-CCSD singles Fock term
     Molec. Phys., 2012 110 2413-2417
     doi.org/10.1080/00268976.2012.687466
  3. Neese,F.
     The ORCA program system
     WIRES Comput. Molec. Sci., 2012 2(1)73-78
     doi.org/10.1002/wcms.81
  4. Izsak,R.; Neese,F.; Klopper,W.
     Robust fitting techniques in the chain of spheres approximation to the Fock exchange: The role of the complementary space
     J. Chem. Phys., 2013 139 
     doi.org/10.1063/1.4819264
  5. Neese,F.
     Software update: the ORCA program system, version 4.0
     WIRES Comput. Molec. Sci., 2018 8(1)1-6
     doi.org/10.1002/wcms.1327
  6. Neese,F.; Wennmohs,F.; Becker,U.; Riplinger,C.
     The ORCA quantum chemistry program package
     J. Chem. Phys., 2020 152 Art. No. L224108
     doi.org/10.1063/5.0004608

List of optional additional citations

  1. Neese,F.
     Approximate second-order SCF convergence for spin unrestricted wavefunctions
     Chem. Phys. Lett., 2000 325(1-3)93-98
     doi.org/10.1016/s0009-2614(00)00662-x

Timings for individual modules:

Sum of individual times          ...    25714.121 sec (= 428.569 min)
Startup calculation              ...      594.283 sec (=   9.905 min)   2.3 %
SCF iterations                   ...    24766.224 sec (= 412.770 min)  96.3 %
Property calculations            ...      353.613 sec (=   5.894 min)   1.4 %
                             ****ORCA TERMINATED NORMALLY****
TOTAL RUN TIME: 0 days 7 hours 9 minutes 19 seconds 485 msec
