LAMMPS data file via write_data, version 23 Jun 2022, timestep = 2050000

2528 atoms
22 atom types
2496 bonds
23 bond types
4448 angles
43 angle types
6336 dihedrals
53 dihedral types

0 258.75 xlo xhi
-0.21229628879861526 17.50629628879652 ylo yhi
-1.8991791395587512 34.83917913955261 zlo zhi

Masses

1 1.008
2 1.008
3 1.008
4 1.008
5 1.008
6 126.9
7 12.01
8 12.01
9 12.01
10 12.01
11 12.01
12 12.01
13 12.01
14 12.01
15 12.01
16 12.01
17 12.01
18 12.01
19 12.01
20 14.01
21 207.2
22 16

Bond Coeffs # harmonic

1 330.6 1.0969
2 330.6 1.0969
3 330.6 1.0969
4 345.8 1.086
5 345.8 1.086
6 338.7 1.091
7 373.2 1.0304
8 300.9 1.5375
9 321 1.5156
10 321 1.5156
11 461.1 1.3984
12 461.1 1.3984
13 321 1.5156
14 461.1 1.3984
15 461.1 1.3984
16 461.1 1.3984
17 450.2 1.4058
18 351.4 1.4854
19 450.2 1.4058
20 450.2 1.4058
21 376.6 1.3696
22 300.9 1.5375
23 283.3 1.511

Angle Coeffs # harmonic

1 39.4 107.58
2 46.34 109.8
3 39.4 107.58
4 46.8 110.47
5 39.4 107.58
6 46.8 110.47
7 46.34 109.8
8 48.18 119.88
9 48.18 119.88
10 47.98 119.86
11 48.18 119.88
12 48.18 119.88
13 47.98 119.86
14 39.22 109.75
15 46.2 110.56
16 48.65 108.01
17 40.58 108.3
18 45.85 110.11
19 63.53 120.77
20 63.53 120.77
21 66.62 120.02
22 66.26 120.69
23 66.62 120.02
24 63.15 112.07
25 62.86 111.51
26 63.15 112.07
27 63.56 112.24
28 66.26 120.69
29 69.58 119.2
30 63.53 120.77
31 66.62 120.02
32 63.53 120.77
33 66.26 120.69
34 66.72 118.38
35 64.05 121.11
36 64.05 121.11
37 64.05 121.11
38 66.62 120.02
39 66.62 120.02
40 66.72 118.38
41 63.48 119.89
42 64.18 114.21
43 70.06 116.91

Dihedral Coeffs # opls

1 0 0 0.32 0
2 0 0 0.311111 0
3 0 0 0 0
4 0 0 0 0
5 0 0 0.311111 0
6 0 0 0.311111 0
7 0 7.25 0 0
8 0 7.25 0 0
9 0 7.25 0 0
10 0 7.25 0 0
11 0 7.25 0 0
12 0 7.25 0 0
13 0 7.25 0 0
14 0 7.25 0 0
15 0 7.25 0 0
16 0 7.25 0 0
17 0 7.25 0 0
18 0 7.25 0 0
19 0 7.25 0 0
20 0 0 0.311111 0
21 0 0 0.311111 0
22 0 0 0.311111 0
23 0 7.25 0 0
24 0 7.25 0 0
25 0 7.25 0 0
26 0 7.25 0 0
27 0 7.25 0 0
28 0 7.25 0 0
29 0 7.25 0 0
30 0 0 0.311111 0
31 0 0 0 0
32 0 0 0 0
33 0 0 0 0
34 0 0 0 0
35 0 7.25 0 0
36 0 7.25 0 0
37 0 7.25 0 0
38 0 7.25 0 0
39 0 1.8 0 0
40 0 7.25 0 0
41 0 7.25 0 0
42 0 0 0 0
43 0 7.25 0 0
44 0 7.25 0 0
45 0 7.25 0 0
46 0 2 0 0
47 0 2 0 0
48 0 7.25 0 0
49 0 7.25 0 0
50 0 7.25 0 0
51 0 7.25 0 0
52 0 7.25 0 0
53 0 1.8 0 0

Atoms # full

643 642 6 -1.000000037974684 30.459043875643058 6.848108339312934 5.953269769388415 0 0 0
2 1 21 1.999999962025316 30.63643170796959 4.58790212375156 3.882383137945586 0 0 0
4 3 6 -1.000000037974684 30.31469156392032 2.438959951048945 6.486658917051231 0 0 0
5 4 6 -1.000000037974684 27.68669646856691 4.810744768460051 3.280247359991708 0 0 0
6 5 6 -1.000000037974684 31.17665595258629 2.3421754822034426 1.8309237272077412 0 0 0
8 7 6 -1.000000037974684 31.064490527604338 6.540451516448646 1.4962488798774278 0 0 0
115 60 3 0.1342949620253164 25.204009963373075 2.1990994246345217 3.932984021828171 0 0 0
736 692 5 0.2933639620253164 27.075562113184695 7.901704740924828 2.7540458545545308 0 0 0
1691 1684 4 0.0933639620253164 26.774648675959682 3.886352944574669 -0.17334815311567164 0 0 1
61 60 22 -0.0284400379746836 20.93791844020595 1.1876979727327783 5.484075973871123 0 0 0
101 60 1 0.0544599620253164 16.83190302893388 0.30383044007099436 4.0470099088813285 0 0 0
1688 1684 5 0.2933639620253164 29.211372482254685 4.377486763186299 0.5858431069570614 0 0 1
1687 1684 5 0.2933639620253164 29.479896627762347 5.107670375106478 -0.8084730686243924 0 0 1
10 9 21 1.999999962025316 31.02882946920764 0.22755047914172286 -0.7549385194310481 0 0 0
751 692 13 -0.1489440379746836 23.727475363765496 8.26531667806614 5.524899240927833 0 0 0
756 692 15 -0.0790760379746836 20.832587971318432 7.889032835506766 5.168646741268626 0 0 0
114 60 13 -0.1489440379746836 24.8761850544698 1.2760647464207253 4.260783004481353 0 0 0
107 60 19 0.0139459620253164 28.08423485398948 0.7817770762719675 3.680414239631527 0 0 0
14 13 6 -1.000000037974684 27.94292260243979 0.5838813784895875 -0.5756472129987216 0 0 0
753 692 13 -0.1489440379746836 25.1070169419956 8.447678481178746 5.356951694985813 0 0 0
110 60 17 -0.0970300379746836 27.238529039291457 0.7242160338742795 4.923256557618232 0 0 0
111 60 2 0.0733889620253164 27.281026348502607 1.7244685704501421 5.342519050360256 0 0 0
752 692 3 0.1342949620253164 23.41622744489526 7.2813039809379605 5.829318398863077 0 0 0
109 60 4 0.0933639620253164 29.119222081025978 1.09274667500489 3.9278340775315375 0 0 0
1692 1684 4 0.0933639620253164 27.343623557208286 5.580148881142646 0.017011042817675116 0 0 1
757 692 3 0.1342949620253164 21.465714257634342 7.157777543197926 4.622024779694333 0 0 0
102 60 1 0.0544599620253164 17.61123293672536 1.7510791007697222 4.217562751988004 0 0 0
108 60 4 0.0933639620253164 27.72813200915985 1.5618477484603417 2.983462523617747 0 0 0
766 692 1 0.0544599620253164 18.41988263770364 6.584653624708559 3.964599750710095 0 0 0
112 60 2 0.0733889620253164 27.733682284662553 -0.000948907884565281 5.619495813571247 0 0 0
754 692 3 0.1342949620253164 25.863191689606108 7.67311079283597 5.608987224940237 0 0 0
735 692 20 -0.2222520379746836 27.92204397928938 8.248301553406973 3.1313671931985247 0 0 0
130 60 16 -0.0518930379746836 20.6022806751364 0.012466635304853618 4.892702434738509 0 0 0
1686 1684 20 -0.2222520379746836 28.9061227431196 4.364952661687717 -0.3725858582998362 0 0 1
113 60 9 -0.0297840379746836 25.793429201824 0.33533432059605706 4.578358453678241 0 0 0
94 60 7 0.1123889620253164 18.21237460519154 0.3513967809203964 5.778211769911084 0 0 0
1690 1684 19 0.0139459620253164 27.478143938543976 4.681958719239125 -0.5445628803684083 0 0 1
763 692 12 -0.0578530379746836 18.96377717467066 6.327984477552493 4.846709510944579 0 0 0
1689 1684 5 0.2933639620253164 29.050347018837602 3.4796075496913703 -0.8103001896004197 0 0 1
116 60 13 -0.1489440379746836 23.476090512132053 0.9403961453715668 4.153443723550142 0 0 0
758 692 8 -0.1555560379746836 19.502609843642396 7.540930551767636 5.56640723838809 0 0 0
117 60 3 0.1342949620253164 22.780369520421914 1.697997634894369 3.832366979793937 0 0 0
764 692 1 0.0544599620253164 18.12692721662081 5.814998570692338 5.412735008214352 0 0 0
1708 1684 3 0.1342949620253164 21.19154162339931 2.8857952571789323 -1.8525424344447157 0 0 1
75 60 13 -0.1489440379746836 23.330834008084796 2.435827167182427 6.942812291692672 0 0 0
738 692 5 0.2933639620253164 28.550472112382256 8.14299887153375 2.3600997384713622 0 0 0
737 692 5 0.2933639620253164 28.21450445521568 7.641227487588666 3.913135258013184 0 0 0
760 692 3 0.1342949620253164 17.700246058153173 8.083318368623589 6.6059163623745665 0 0 0
70 60 2 0.0733889620253164 27.15245546929652 4.006228133530904 6.579798619208942 0 0 0
1714 1684 12 -0.0578530379746836 18.543397337305656 2.5622092666339715 -1.459974873620546 0 0 1
765 692 1 0.0544599620253164 19.752391247471394 5.556794506039423 4.674609465147285 0 0 0
99 60 10 -0.1787800379746836 17.16733860470506 0.9931559729998762 4.793132125412054 0 0 0
100 60 1 0.0544599620253164 16.421830051711517 1.54344034679899 5.384710456910207 0 0 0
76 60 3 0.1342949620253164 23.099885610186426 1.398114747775151 6.760133495636007 0 0 0
89 60 16 -0.0518930379746836 20.222519493603624 1.8561389626777787 6.44190262384558 0 0 0
77 60 14 0.1183179620253164 22.25664704333785 3.35788527401967 7.154100657975338 0 0 0
71 60 2 0.0733889620253164 26.60629174413198 5.6599266900106695 7.008491331336116 0 0 0
1722 1684 1 0.0544599620253164 17.950614913794443 8.270332479540878 -1.6505075548957673 0 0 1
1698 1684 3 0.1342949620253164 25.36042140763757 7.089417233321531 -1.8041841027649794 0 0 1
1700 1684 3 0.1342949620253164 22.889329106464693 6.891417080981928 -1.6768768310270836 0 0 1
1715 1684 1 0.0544599620253164 18.017401167089606 2.7750760252096476 -0.47235231765245933 0 0 1
88 60 11 0.0607159620253164 18.851333398548157 1.522029249717192 6.588691983210326 0 0 0
74 60 3 0.1342949620253164 25.529944045494343 2.128683614900175 6.676373084472131 0 0 0
73 60 13 -0.1489440379746836 24.720541675750628 2.820660164657548 6.945009398998946 0 0 0
82 60 18 -0.0340050379746836 20.77945000199563 2.9882273932040664 7.1256100251659396 0 0 0
759 692 15 -0.0790760379746836 18.712892820507463 8.332637700367046 6.3900954340810685 0 0 0
72 60 9 -0.0297840379746836 25.060859506688367 4.141342865645431 7.135064509427434 0 0 0
69 60 17 -0.0970300379746836 26.479475569879067 4.596975357765038 7.27922131464761 0 0 0
1717 1684 1 0.0544599620253164 19.262933256504766 1.8000296323347544 -1.2093252403457448 0 0 1
12 11 6 -1.000000037974684 30.728881093846343 2.5898970879440437 10.63718125155564 0 0 0
17 16 21 1.999999962025316 30.76154047153586 4.551781864669242 13.31349555084716 0 0 0
18 17 6 -1.000000037974684 30.915707665958944 6.9081591626882135 10.81406825261716 0 0 0
20 19 6 -1.000000037974684 27.78456654058314 4.500656940066966 12.766138814550006 0 0 0
1 0 21 1.999999962025316 30.68245244809 0.2744237406854664 8.520155936784123 0 0 0
469 420 4 0.0933639620253164 28.792609900728447 7.770912403470386 13.484316652221107 0 0 0
1280 1279 6 -1.000000037974684 30.620157170520738 2.0948114872965706 15.440873664613052 0 0 0
78 60 13 -0.1489440379746836 22.687328978034262 4.722021275090606 7.3713014087670565 0 0 0
437 420 14 0.1183179620253164 22.961443789838555 4.729818290508272 15.940338072205803 0 0 0
442 420 18 -0.0340050379746836 21.45661000039839 4.595801195271818 15.635844202366272 0 0 0
1116 1052 15 -0.0790760379746836 20.83719850713505 0.2901270717431781 12.996629982938897 0 1 0
1104 1052 2 0.0733889620253164 27.530997944963097 0.19689232075090743 15.198850613631258 0 1 0
475 420 3 0.1342949620253164 25.574100239926214 7.00084755813781 13.366136263013969 0 0 0
84 60 3 0.1342949620253164 20.285529623949394 4.289409906681671 8.857712372096914 0 0 0
1095 1052 20 -0.2222520379746836 28.01751045553327 1.0746409847620642 12.663908152523875 0 1 0
66 60 19 0.0139459620253164 27.045942526190704 4.5129224211997325 8.699003374470896 0 0 0
490 420 16 -0.0518930379746836 20.69132157803661 8.034876757160363 14.187839605190808 0 0 0
440 420 13 -0.1489440379746836 25.24899474691844 3.8510285451591417 15.92889212231815 0 0 0
1097 1052 5 0.2933639620253164 28.546420762913286 1.5588534525539044 13.321110621567097 0 1 0
350 346 5 0.2933639620253164 31.834823375745213 4.822677098352166 8.696479721370183 0 0 0
453 420 1 0.0544599620253164 17.615566977072955 2.127864740886443 15.728043751883586 0 0 0
1126 1052 1 0.0544599620253164 19.339797431142287 1.0512683809682646 10.574254276449489 0 1 0
62 60 20 -0.2222520379746836 28.475007028353 4.910015114970961 8.86098083829 0 0 0
456 420 1 0.0544599620253164 17.924891822806963 7.553626026254312 16.11203801537348 0 0 0
467 420 19 0.0139459620253164 27.92003146345513 8.396838188503107 13.16090632208691 0 0 0
1125 1052 1 0.0544599620253164 19.315550461579313 2.299937210642428 11.70966181036666 0 1 0
448 420 11 0.0607159620253164 19.36842982699205 5.57250841965511 14.698802084789975 0 0 0
68 60 4 0.0933639620253164 26.92670205751961 3.5847292032930413 9.242562213679504 0 0 0
476 420 13 -0.1489440379746836 23.716838131800802 7.905235103036599 13.668049397240296 0 0 0
460 420 1 0.0544599620253164 18.37941823151511 5.904924867537866 12.116034102514348 0 0 0
93 60 1 0.0544599620253164 16.847114788343465 4.119156489262681 8.775289176661854 0 0 0
63 60 5 0.2933639620253164 28.63748521599154 5.121879644622676 9.83530101585777 0 0 0
459 420 10 -0.1787800379746836 17.709304860609986 6.327555670015226 12.85673724308037 0 0 0
64 60 5 0.2933639620253164 28.730693492819377 5.714549525753928 8.29302805641994 0 0 0
1117 1052 3 0.1342949620253164 21.47997961303039 0.8770203959856513 12.342403406280868 0 1 0
468 420 4 0.0933639620253164 27.274861288748934 7.779516082902426 12.583840247306842 0 0 0
471 420 2 0.0733889620253164 27.518751778349166 7.988192082009201 15.252834256715241 0 0 0
443 420 15 -0.0790760379746836 20.860405883654153 3.3509307171303915 15.825943012160794 0 0 0
462 420 1 0.0544599620253164 17.111299151803802 7.099782372642185 12.443210754727021 0 0 0
474 420 13 -0.1489440379746836 25.0620246794271 7.87701568295317 13.833029069654032 0 0 0
489 420 11 0.0607159620253164 19.32859696576245 8.008543525767113 13.767234039891918 0 0 0
1118 1052 8 -0.1555560379746836 19.46573563355353 0.3306367901832379 12.786937660624302 0 1 0
80 60 13 -0.1489440379746836 24.04567075312113 5.064763234166358 7.393645849591926 0 0 0
439 420 3 0.1342949620253164 23.627923411900788 2.785301781685179 15.139569865711788 0 0 0
444 420 3 0.1342949620253164 21.397646382619158 2.523916567692498 16.315225148268034 0 0 0
449 420 16 -0.0518930379746836 20.724980203364847 5.694448672992814 15.011200482788112 0 0 0
1123 1052 12 -0.0578530379746836 18.98747111187545 1.21817296236054 11.624198139596714 0 1 0
421 420 22 -0.0284400379746836 21.292121272713125 6.890158243554706 14.793545906472689 0 0 0
431 420 2 0.0733889620253164 27.811018409847286 4.469974494199287 16.24220425033486 0 0 0
67 60 4 0.0933639620253164 26.450092473740952 5.282027366138821 9.10117804290577 0 0 0
1911 1910 6 -1.000000037974684 30.801850921753065 6.297796773220696 15.707709471347997 0 0 0
1098 1052 5 0.2933639620253164 28.46243642910717 1.0702227709523728 11.803668866370705 0 1 0
455 420 10 -0.1787800379746836 17.421688133730875 7.139459913612535 15.194920129813264 0 0 0
1096 1052 5 0.2933639620253164 27.06975099560302 1.539608954670182 12.514771413479474 0 1 0
65 60 5 0.2933639620253164 29.064268759263975 4.146407612461502 8.569647067422828 0 0 0
477 420 3 0.1342949620253164 23.140930792155263 7.130360398100384 13.166281987031605 0 0 0
90 60 12 -0.0578530379746836 17.797430411371757 3.899183444158353 9.347858757760621 0 0 0
83 60 15 -0.0790760379746836 19.993718177368994 3.498953971039625 8.171189350873986 0 0 0
3 2 6 -1.000000037974684 27.682608710964935 0.25165499908300204 9.155828252621243 0 0 0
446 420 15 -0.0790760379746836 18.776298092652286 4.373268916624938 15.128716958351712 0 0 0
450 420 12 -0.0578530379746836 18.596060663434084 2.1121459421578566 16.221878449819076 0 0 0
81 60 3 0.1342949620253164 24.312997768244276 6.10537957603135 7.626119022928132 0 0 0
451 420 1 0.0544599620253164 19.01762971126647 1.1394835874067255 15.961496579655359 0 0 0
461 420 1 0.0544599620253164 17.046200493596253 5.481075983558532 13.181387729087122 0 0 0
85 60 8 -0.1555560379746836 18.636159464353632 3.17391579722012 8.347078231557266 0 0 0
445 420 8 -0.1555560379746836 19.4581767539813 3.2789731637559325 15.670557561375805 0 0 0
91 60 1 0.0544599620253164 18.195346078138517 4.877693842576303 9.662654413329962 0 0 0
454 420 7 0.1123889620253164 18.46023861781019 6.760048684750916 14.124980591608436 0 0 0
92 60 1 0.0544599620253164 17.614433583782056 3.2892782268390106 10.210061611874023 0 0 0
87 60 3 0.1342949620253164 16.963997285299225 1.9857713221328075 7.498902864755452 0 0 0
86 60 15 -0.0790760379746836 18.043538417991005 2.2249625163151916 7.483277473791218 0 0 0
635 634 6 -1.000000037974684 27.649846915539285 8.529132944409433 8.81395454748742 0 0 0
458 420 1 0.0544599620253164 16.859674645639323 6.276755337619311 15.521427340382672 0 0 0
457 420 1 0.0544599620253164 16.76171976781921 7.906218472783484 14.868943235501712 0 0 0
1124 1052 1 0.0544599620253164 17.93203610650592 1.276745573524352 11.472326424410017 0 1 0
447 420 3 0.1342949620253164 17.67165418199209 4.296608351295672 14.978663995571043 0 0 0
79 60 3 0.1342949620253164 21.878212777583702 5.450216615697655 7.388010361651955 0 0 0
438 420 13 -0.1489440379746836 23.921759232017777 3.7262542050903207 15.580179359473592 0 0 0
441 420 3 0.1342949620253164 26.024290568135758 3.1146737801563362 15.67627434485408 0 0 0
422 420 20 -0.2222520379746836 28.960110909465197 4.1289852196527 18.35385637033865 0 0 0
423 420 5 0.2933639620253164 29.592918669693372 4.7877778607687205 17.90586307367812 0 0 0
425 420 5 0.2933639620253164 29.095668989684516 3.203474670563189 17.89540553115448 0 0 0
1344 1324 13 -0.1489440379746836 25.486979928638835 2.850319701164382 25.26588146116673 0 0 0
1358 1324 7 0.1123889620253164 19.043366523370405 1.1615542298316526 23.42634380360516 0 0 0
1352 1324 11 0.0607159620253164 19.7444950445108 1.9776256401678924 24.547018793636465 0 0 0
2007 1956 2 0.0733889620253164 26.649815597087564 7.82993929926152 21.608297856272937 0 0 0
1266 1265 21 1.999999962025316 31.442270704867756 4.57356827675407 22.36763663469634 0 0 0
429 420 17 -0.0970300379746836 27.196322068239564 5.062145632053549 16.926469167938244 0 0 0
1269 1268 6 -1.000000037974684 28.28029392655868 4.584051762335319 22.47312363676469 0 0 0
434 420 3 0.1342949620253164 25.188748860108426 6.968367295926066 17.40092428178841 0 0 0
1272 1271 6 -1.000000037974684 31.560008675127953 6.106229594727328 19.910020855086444 0 0 0
1362 1324 1 0.0544599620253164 17.274468323070067 0.8043602618549535 24.656932102049467 0 0 0
436 420 3 0.1342949620253164 22.773228462478347 6.650482653542247 16.946016777113574 0 0 0
2015 1956 13 -0.1489440379746836 23.678136703027132 8.036492216158514 24.471827625198554 0 0 0
1268 1267 6 -1.000000037974684 30.93401351650799 2.533333730184869 24.685912596531715 0 0 0
2017 1956 13 -0.1489440379746836 24.88253075620697 7.8944348058895795 23.767542605674915 0 0 0
1359 1324 10 -0.1787800379746836 17.95642209152324 0.20649162158056736 24.021480233252163 0 0 0
1364 1324 1 0.0544599620253164 17.802095377739963 1.457176031713838 21.548369125135686 0 0 0
2030 1956 1 0.0544599620253164 17.517820590165844 6.966079283368109 25.084082341598243 0 0 0
2016 1956 3 0.1342949620253164 23.256322115599847 7.110493108934985 24.887851498265963 0 0 0
1368 1324 5 0.2933639620253164 27.219494829912193 1.1081052117716768 21.97109146103421 0 0 0
1393 1324 11 0.0607159620253164 19.969074464172405 0.18768002071395393 22.653058634798082 0 0 0
1325 1324 22 -0.0284400379746836 21.83262246103148 0.9913877461018481 24.00507789046454 0 0 0
1394 1324 16 -0.0518930379746836 21.332727409653646 0.19385117004672295 22.975832246549682 0 0 0
1906 1905 21 1.999999962025316 31.44598178490763 8.452277468660853 17.92751502067213 0 0 0
2005 1956 4 0.0933639620253164 28.233233988080706 7.9493436205017005 23.515416796630657 0 0 0
2022 1956 8 -0.1555560379746836 19.353139271193772 8.09956690977628 24.835092905887766 0 0 0
1365 1324 1 0.0544599620253164 19.07004169320394 2.8203366643281904 21.918959768828326 0 0 0
433 420 13 -0.1489440379746836 24.806342265211555 6.015193391377857 16.863126874872638 0 0 0
452 420 1 0.0544599620253164 18.5352809172114 2.1386220108302982 17.283132790703274 0 0 0
2028 1956 1 0.0544599620253164 18.974784266440913 5.951954536324941 24.914078097710107 0 0 0
2002 1956 5 0.2933639620253164 29.33474584244537 8.336206645501612 21.43618183939354 0 0 0
1350 1324 15 -0.0790760379746836 19.06208304192817 2.942359786655314 25.330922491300637 0 0 0
2020 1956 15 -0.0790760379746836 20.653788751837283 8.168908868014594 24.379390743809054 0 0 0
2018 1956 3 0.1342949620253164 25.324353306041022 6.877822419488303 23.921119359036883 0 0 0
1345 1324 3 0.1342949620253164 26.1678198172667 2.7391215667274125 24.42576438266513 0 0 0
1907 1906 6 -1.000000037974684 31.51443940263465 6.661048404139595 24.628606405125502 0 0 0
427 420 4 0.0933639620253164 26.930217317103555 3.7119475185168516 18.585381846373306 0 0 0
2029 1956 1 0.0544599620253164 18.3539030181499 6.695321351145311 23.394824654270227 0 0 0
1343 1324 3 0.1342949620253164 23.766134037322498 2.386477097858453 24.02584246077891 0 0 0
1278 1277 6 -1.000000037974684 27.981088224989016 0.47624853164029646 18.48765324461543 0 0 0
435 420 13 -0.1489440379746836 23.446440963224724 5.899019778087405 16.5630386352394 0 0 0
1370 1324 5 0.2933639620253164 28.602127862145498 1.6968984698653273 22.79559446826049 0 0 0
428 420 4 0.0933639620253164 27.57827236465976 5.390084851763588 19.066088363145482 0 0 0
1366 1324 1 0.0544599620253164 17.564942014440714 2.6254196188279133 22.871049273996185 0 0 0
1270 1269 6 -1.000000037974684 31.429273990465653 2.0414737642804717 20.13868702087872 0 0 0
432 420 9 -0.0297840379746836 25.74103978319895 5.021395276848332 16.610734658582533 0 0 0
424 420 5 0.2933639620253164 29.119390824071125 4.019732967021554 19.33378261174369 0 0 0
1353 1324 16 -0.0518930379746836 21.11399361737333 1.854126919945495 24.78559542633284 0 0 0
430 420 2 0.0733889620253164 27.608715964303336 6.051657110604995 16.684975767314985 0 0 0
426 420 19 0.0139459620253164 27.529710703335123 4.615033426202395 18.29042523471979 0 0 0
1342 1324 13 -0.1489440379746836 24.15627601644457 2.5747548959042206 25.0301158567183 0 0 0
1367 1324 20 -0.2222520379746836 28.21343366644935 1.12303594904689 22.041858320041907 0 0 0
2027 1956 12 -0.0578530379746836 18.51148282557697 6.885948042582247 24.514028448394114 0 0 0
1369 1324 5 0.2933639620253164 28.567316035215462 1.524894386327444 21.196764080537527 0 0 0
1363 1324 10 -0.1787800379746836 18.351825748565737 2.0768197908265384 22.326840636500112 0 0 0
2021 1956 3 0.1342949620253164 21.002561981469803 7.37591734976048 23.60061382193184 0 0 0
1351 1324 3 0.1342949620253164 18.01043369248862 3.2423306435874317 25.101747233539143 0 0 0
1386 1324 3 0.1342949620253164 25.931718564433222 -0.14139863650186868 25.02758075719251 0 0 0
1372 1324 4 0.0933639620253164 29.78421331998382 -0.20721723086344568 22.57963063011146 0 0 0
1327 1324 5 0.2933639620253164 29.353062423507918 6.110176446331343 27.764702144627403 0 0 0
1694 1684 2 0.0733889620253164 27.423827171137997 5.974862949504717 34.46705278039516 0 0 0
1357 1324 1 0.0544599620253164 17.740755944920803 4.480648183707713 27.310858329072268 0 0 0
647 646 6 -1.000000037974684 30.840394808153192 6.675842644015349 33.78509131259781 0 0 -1
1276 1275 6 -1.000000037974684 31.33325132709048 2.3787222148883314 29.155219894556065 0 0 0
1281 1280 21 1.999999962025316 31.134112709476092 4.657688810279719 31.371230750897926 0 0 0
1735 1684 2 0.0733889620253164 27.861209513404695 8.451431031753687 32.982559078529206 0 0 0
1284 1283 6 -1.000000037974684 28.29668987396431 4.958892921845357 30.7359588005257 0 0 0
1347 1324 15 -0.0790760379746836 20.896475812048497 3.323417313547076 26.69698472141485 0 0 0
2369 2316 9 -0.0297840379746836 25.325093825020254 0.7285515770015493 32.27908265864572 0 1 0
1738 1684 13 -0.1489440379746836 25.15998157534262 8.10103484931802 32.197751043436504 0 0 0
1334 1324 2 0.0733889620253164 27.73654006351404 2.9424429565206998 27.570654500945857 0 0 0
1356 1324 1 0.0544599620253164 18.812527607988557 3.8747153870684232 28.58365826976854 0 0 0
1693 1684 17 -0.0970300379746836 27.076897463864455 5.004535972958124 34.75936494035606 0 0 0
1328 1324 5 0.2933639620253164 29.80783327623269 5.032044615662205 26.458896574309815 0 0 0
1282 1281 6 -1.000000037974684 31.836457052153897 6.905189793741311 29.176387638176855 0 0 0
1709 1684 8 -0.1555560379746836 19.262757464630766 3.7370141974561872 34.63804160042904 0 0 0
1710 1684 15 -0.0790760379746836 18.493296149108545 4.79956250768467 34.14989341704872 0 0 0
2360 2316 5 0.2933639620253164 28.912588744305438 0.34726240479007187 30.421223707858378 0 1 0
1705 1684 3 0.1342949620253164 25.50130965244798 2.9935435959382275 33.834348564942715 0 0 0
1712 1684 11 0.0607159620253164 19.138961426666544 6.00997092881593 33.710641684565765 0 0 0
1695 1684 2 0.0733889620253164 27.478786570214957 4.209366227574076 34.162162409462724 0 0 0
2384 2316 3 0.1342949620253164 17.13315001395692 0.011708219965280625 32.49185405247796 0 1 0
1339 1324 13 -0.1489440379746836 23.6606452925012 2.7811272715381565 27.392657108366446 0 0 0
16 15 6 -1.000000037974684 30.740303642472142 2.5096111643002117 33.65185630218161 0 0 -1
1723 1684 10 -0.1787800379746836 17.61764570278931 6.724936975511518 32.01449549934579 0 0 0
1739 1684 3 0.1342949620253164 25.73551774171296 7.177982445919982 32.008662077686374 0 0 0
1740 1684 13 -0.1489440379746836 23.779742381306246 8.10380171221019 32.292850825460704 0 0 0
2374 2316 14 0.1183179620253164 22.51970400223757 0.4830526621981468 32.49024707011031 0 1 0
2375 2316 13 -0.1489440379746836 23.382837597690358 -0.03841505842169257 33.51425134725869 0 1 0
1703 1684 3 0.1342949620253164 23.06113373796149 2.8900079622275356 33.546280012351275 0 0 0
2366 2316 17 -0.0970300379746836 26.829170291258755 0.9669075044172093 32.130259189776254 0 1 0
1696 1684 9 -0.0297840379746836 25.586897395903584 4.964359224857944 34.52853849741778 0 0 0
1333 1324 17 -0.0970300379746836 27.428031515546945 3.5692680890171244 26.776011427160455 0 0 0
1329 1324 5 0.2933639620253164 29.381855563928802 4.47257322591039 28.02033467385807 0 0 0
1346 1324 18 -0.0340050379746836 21.745429675326694 2.540740945425319 25.84224126496839 0 0 0
1718 1684 7 0.1123889620253164 18.36846249820017 7.221070591345243 33.251395721129306 0 0 0
1349 1324 8 -0.1555560379746836 19.564325425576722 3.5247338751287622 26.507309751791887 0 0 0
1726 1684 1 0.0544599620253164 18.360618346048437 6.163508196463912 31.28198721034764 0 0 0
1707 1684 15 -0.0790760379746836 20.65286258381228 3.73700015135874 34.6272537179066 0 0 0
1685 1684 22 -0.0284400379746836 21.197517712227796 7.028730292895554 33.204564714664855 0 0 0
1704 1684 13 -0.1489440379746836 24.92504007188543 3.8205543620716456 34.11046183254254 0 0 0
1340 1324 3 0.1342949620253164 22.99316115463513 2.8268015798171704 28.224038866087383 0 0 0
1335 1324 2 0.0733889620253164 27.98877347271786 3.1762202972237064 25.86955583711212 0 0 0
1326 1324 20 -0.2222520379746836 29.158881946332155 5.182774373124572 27.273712204215876 0 0 0
1331 1324 4 0.0933639620253164 27.745790995631687 5.570048522579652 25.885485287910633 0 0 0
1706 1684 18 -0.0340050379746836 21.32280852061421 4.894795566230258 34.20007408294696 0 0 0
1337 1324 13 -0.1489440379746836 25.001813779397565 3.2850604732055158 27.594042769568986 0 0 0
2367 2316 2 0.0733889620253164 27.32933823831266 1.6300144059712993 32.81938157703438 0 1 0
1753 1684 11 0.0607159620253164 19.24542496840956 8.402320866851834 32.77917368150845 0 0 0
1332 1324 4 0.0933639620253164 27.121414173754818 5.469489137550965 27.570559679155174 0 0 0
1730 1684 5 0.2933639620253164 29.855196831994835 8.433480040871995 31.548032091710382 0 0 0
1354 1324 12 -0.0578530379746836 18.748793740927095 4.242508996610512 27.566567524272333 0 0 0
1713 1684 16 -0.0518930379746836 20.528003926262656 5.975332078755029 33.69695212367149 0 0 0
2370 2316 13 -0.1489440379746836 24.48661046524939 1.2692672122730346 31.282402998519245 0 1 0
1330 1324 19 0.0139459620253164 27.751929667695045 5.045302927333331 26.84890504839878 0 0 0
2387 2316 12 -0.0578530379746836 17.9970043336681 2.172189551853811 31.147924721561253 0 1 0
1741 1684 3 0.1342949620253164 23.245317123999357 7.130111984563137 32.08534479913376 0 0 0
1336 1324 9 -0.0297840379746836 25.92220746816521 3.315441244795366 26.47782844515471 0 0 0
1721 1684 1 0.0544599620253164 17.02009195821831 6.871498276678488 34.818921826887696 0 0 0
2388 2316 1 0.0544599620253164 18.453937187680697 3.160564837190768 31.187326484268496 0 1 0
2368 2316 2 0.0733889620253164 26.91884911532316 1.5414769028628696 31.18330058602682 0 1 0
1702 1684 13 -0.1489440379746836 23.511734856083216 3.8378387329284513 33.82705730543844 0 0 0
2380 2316 15 -0.0790760379746836 20.267863628023253 1.304588920464246 32.039736068474426 0 1 0
1338 1324 3 0.1342949620253164 25.384984497806755 3.601423616614561 28.535837674222584 0 0 0
2372 2316 13 -0.1489440379746836 23.135316610365425 1.1086988603340426 31.415535077596253 0 1 0
2389 2316 1 0.0544599620253164 17.918611653381046 1.9894581574849053 30.058239748661435 0 1 0
1724 1684 1 0.0544599620253164 16.816785630594715 6.0356651824762535 32.28603586804746 0 0 0
1701 1684 14 0.1183179620253164 22.797740181280474 4.9798317651705775 34.17928942277136 0 0 0
2381 2316 3 0.1342949620253164 20.815370098268623 2.1944758518286753 31.69413352672791 0 1 0
1355 1324 1 0.0544599620253164 19.220958895336405 5.242915169741613 27.663737890771607 0 0 0
1348 1324 3 0.1342949620253164 21.348827260649212 3.7889664014408377 27.50580602099532 0 0 0
1754 1684 16 -0.0518930379746836 20.653516844313774 8.225132926455688 32.862795457844754 0 0 0
1711 1684 3 0.1342949620253164 17.36701024076209 4.7855149893988775 34.0983183318863 0 0 0
2361 2316 5 0.2933639620253164 29.665747403140266 -0.08266786704052762 31.81231134666999 0 1 0
1725 1684 1 0.0544599620253164 17.167237336774903 7.6181049693761205 31.61970444231478 0 0 0
2390 2316 1 0.0544599620253164 16.999550681503006 2.4029155327349687 31.64871398477318 0 1 0
2383 2316 15 -0.0790760379746836 18.23696049261214 0.04996384274141211 32.49382720610513 0 1 0
1341 1324 14 0.1183179620253164 23.20040759899689 2.5827520767907513 26.10093429135289 0 0 0
2373 2316 3 0.1342949620253164 22.569659268909472 1.5695919271976664 30.572013027711677 0 1 0
1719 1684 10 -0.1787800379746836 17.401686494174168 7.716058760219678 34.28473290248394 0 0 0
2371 2316 3 0.1342949620253164 24.888635252014353 1.8150410505829313 30.435195328358944 0 1 0
2382 2316 8 -0.1555560379746836 18.875453334505835 1.1335842189212255 31.847732525055946 0 1 0
2377 2316 13 -0.1489440379746836 24.765540196257376 0.040252194998501994 33.33632647652615 0 1 0
1699 1684 13 -0.1489440379746836 23.45984857351629 6.060520668487974 34.775782179061146 0 0 0
1265 1264 21 1.999999962025316 31.138789804507493 0.19556809056553634 27.10078623142041 0 0 0
1720 1684 1 0.0544599620253164 16.675995694408076 8.509604509307884 34.0005430869842 0 0 0
2379 2316 18 -0.0340050379746836 21.04936207651512 0.2428616618087209 32.52575633552938 0 1 0
1733 1684 4 0.0933639620253164 27.490977959703862 8.206235618787769 30.539382599821067 0 0 0
1716 1684 1 0.0544599620253164 17.794353373938492 2.1577129927139413 34.74719823071324 0 0 0
1697 1684 13 -0.1489440379746836 24.819378640442334 6.091848110967145 34.75361245705063 0 0 0
742 692 17 -0.0970300379746836 27.12856371578079 9.793667859378935 4.872687026760854 0 0 0