269
	Energy:     568.3328062
C         -3.59323        6.04346       -0.90384
C          4.94340        5.31006       -1.03030
C         -2.64407        7.20222       -0.85332
C          6.17204        5.05010       -1.82491
C         -4.83740        6.25444       -1.48456
C          4.91337        6.44837       -0.23740
C         -5.15433        7.53543       -2.19987
C         -5.94254        5.25038       -1.41824
C         -2.96987        8.30823       -0.06251
C         -1.51775        7.24997       -1.67798
C          6.09795        7.36548       -0.27347
C          3.82818        6.82538        0.71482
C          6.31848        5.64748       -3.06187
C          7.04369        4.04979       -1.40645
C          7.32966        5.24943       -3.95048
C          8.17923        4.16501       -3.54570
C          8.01712        3.53092       -2.27352
H          6.82963        3.60727       -0.44527
C         -2.19566        9.48778       -0.06859
C         -1.06492        9.52418       -0.93153
C         -0.71039        8.41493       -1.75580
H         -1.32825        6.38428       -2.29369
C         -7.13803        5.40733       -2.02851
H         -5.79295        4.37745       -0.82514
C         -6.33178        7.76517       -2.83020
H         -4.39011        8.29052       -2.23524
C          6.20398        8.50948        0.42673
H          6.91580        7.09664       -0.90589
C          3.86213        7.96472        1.46888
H          3.00317        6.16330        0.85376
C         -7.36675        6.67838       -2.79012
C          5.05520        8.87622        1.31029
O         -8.42767        6.84303       -3.36710
O          5.11636        9.92585        1.93374
C         -6.61650        9.10393       -3.58111
C         -8.25060        4.31553       -1.93907
C         -5.44593       10.12115       -3.51249
H         -5.22322       10.40203       -2.46026
H         -5.70237       11.05715       -4.05544
H         -4.52766        9.71033       -3.98568
C         -7.84688        9.79961       -2.95565
H         -7.66087       10.01814       -1.88177
H         -8.76606        9.18704       -3.02658
H         -8.06179       10.75950       -3.47366
C         -6.87555        8.82089       -5.07807
H         -5.98757        8.33416       -5.53642
H         -7.07575        9.76622       -5.62789
H         -7.75059        8.16384       -5.24400
C         -8.59357        3.80813       -3.35818
H         -8.97773        4.60898       -4.01819
H         -9.37909        3.02270       -3.31610
H         -7.69124        3.37027       -3.83817
C         -9.50909        4.90674       -1.26826
H         -9.93110        5.75923       -1.83424
H         -9.26656        5.25886       -0.24211
H        -10.31029        4.13991       -1.19292
C         -7.84289        3.06668       -1.10889
H         -8.66578        2.31961       -1.08479
H         -6.95557        2.56306       -1.55207
H         -7.62081        3.33923       -0.05445
C          7.48271        9.40182        0.31152
C          8.14327        9.55115        1.69948
H          7.47671       10.03728        2.43686
H          9.06189       10.17418        1.63128
H          8.43216        8.55333        2.09622
C          7.09588       10.78591       -0.24791
H          6.63317       10.67295       -1.25283
H          6.38023       11.32032        0.40528
H          7.99445       11.43230       -0.35138
C          8.57787        8.82907       -0.63594
H          9.46392        9.49825       -0.67776
H          8.93719        7.83767       -0.27975
H          8.20050        8.72829       -1.67778
C          2.69187        8.23379        2.47039
C          2.81463        9.55927        3.26479
H          2.80926       10.43731        2.58345
H          3.73154        9.57172        3.89273
H          1.95401        9.68631        3.95840
C          1.34476        8.29265        1.71455
H          0.50620        8.45934        2.42220
H          1.34898        9.12789        0.98337
H          1.12328        7.35122        1.17269
C          2.65291        7.09511        3.51412
H          3.61458        7.05052        4.07035
H          2.47391        6.10477        3.04883
H          1.84297        7.26512        4.25170
O          9.11825        3.69636       -4.38012
C          7.37354        5.98822       -5.31601
C          6.01976        5.81249       -6.05404
H          5.81919        4.73669       -6.24934
H          6.02845        6.34721       -7.02855
H          5.16134        6.21847       -5.48107
C          7.62571        7.49127       -5.05775
H          7.65948        8.05781       -6.01259
H          8.59210        7.63166       -4.52744
H          6.82620        7.94751       -4.43727
C          8.47303        5.49207       -6.27814
H          8.45429        6.07376       -7.22514
H          8.30976        4.42709       -6.55187
H          9.48126        5.62429       -5.83225
C          8.78508        2.23366       -1.88251
C          8.33903        1.63869       -0.51541
H          8.88559        0.69687       -0.29113
H          7.25490        1.38040       -0.52812
H          8.53583        2.34217        0.32075
C          8.48572        1.12804       -2.92925
H          7.39128        0.92869       -2.98043
H          8.99155        0.17599       -2.65805
H          8.82768        1.38659       -3.94826
C         10.29519        2.50152       -1.79965
H         10.49897        3.26930       -1.02325
H         10.70907        2.85443       -2.76275
H         10.83697        1.57044       -1.52482
O         -0.32396       10.64271       -0.98370
C         -2.59204       10.71583        0.80651
C         -1.44339       11.08128        1.77368
H         -1.20918       10.22020        2.42672
H         -1.72957       11.94007        2.41915
H         -0.51288       11.37487        1.25295
C         -2.92082       11.92914       -0.09409
H         -2.06091       12.25364       -0.71011
H         -3.22138       12.80478        0.52210
H         -3.76115       11.68453       -0.77863
C         -3.84766       10.45688        1.67941
H         -3.67917        9.60917        2.37676
H         -4.73743       10.24139        1.04879
H         -4.09393       11.34854        2.29655
C          0.48837        8.50984       -2.74879
C          0.22770        9.64465       -3.77235
H          1.05936        9.71558       -4.50665
H          0.13868       10.64292       -3.30306
H         -0.71245        9.45068       -4.33357
C          1.81162        8.77871       -1.99562
H          1.80685        9.73460       -1.43903
H          2.66261        8.83806       -2.70903
H          2.01823        7.95808       -1.27814
C          0.69606        7.21355       -3.57059
H         -0.20061        6.98333       -4.18604
H          0.91960        6.35228       -2.90525
H          1.55234        7.32452       -4.27214
H         -3.86155        8.22058        0.53851
H          5.59580        6.40520       -3.33376
C         -6.33296        6.17946        6.25198
C         -5.15333        6.77048        6.97987
C         -7.63003        6.63320        6.42912
C         -7.93053        7.89856        7.16349
C         -8.80877        5.89116        5.88239
C         -3.96531        6.99576        6.28513
C         -5.18087        7.00617        8.35844
C         -2.80094        7.48007        6.90986
H         -3.96244        6.78739        5.22464
C        -10.08091        6.33777        5.95418
H         -8.63684        4.93188        5.44600
C         -9.18107        8.41937        7.26784
H         -7.10708        8.45623        7.58059
C        -10.31485        7.64898        6.64024
C         -2.85668        7.72556        8.31587
C         -4.04956        7.47603        9.06568
H         -6.09435        6.77779        8.88838
O        -11.45214        8.07861        6.69922
O         -1.76497        8.17740        8.94452
C        -11.27159        5.52199        5.35232
C        -11.97440        6.35908        4.25913
H        -12.39629        7.30509        4.64815
H        -12.81970        5.79222        3.81166
H        -11.25752        6.60979        3.44713
C        -12.27663        5.15817        6.46727
H        -12.70884        6.05051        6.95900
H        -11.77893        4.54098        7.24621
H        -13.12779        4.57468        6.05333
C        -10.84618        4.18731        4.67978
H        -10.14434        4.36890        3.83625
H        -11.72839        3.65437        4.26213
H        -10.36951        3.50097        5.41296
C         -9.36178        9.78467        8.00513
C        -10.82109       10.29424        8.06441
H        -11.22630       10.46999        7.04477
H        -10.87728       11.26548        8.60266
H        -11.47178        9.58241        8.61688
C         -8.87708        9.65419        9.46288
H         -8.99874       10.61283       10.01212
H         -7.80563        9.39842        9.50051
H         -9.45222        8.86678        9.99682
C         -8.53376       10.87368        7.28295
H         -8.64096       11.85512        7.79372
H         -8.87904       10.98644        6.23260
H         -7.45061       10.63548        7.26554
C         -4.18566        7.65094       10.61251
C         -5.33978        8.62312       10.93000
H         -5.15794        9.61388       10.46034
H         -5.44954        8.76794       12.02681
H         -6.30430        8.22167       10.57219
C         -4.49365        6.27493       11.24829
H         -4.61323        6.36434       12.35016
H         -3.66450        5.56278       11.04551
H         -5.43095        5.83265       10.85278
C         -2.93058        8.20356       11.33080
H         -3.11366        8.30260       12.42327
H         -2.66922        9.21673       10.95598
H         -2.06515        7.51546       11.22138
C         -1.54921        7.68459        6.00456
C         -0.28930        8.21688        6.72909
H          0.05836        7.50526        7.50824
H         -0.47636        9.21701        7.17605
H          0.55281        8.34275        6.01519
C         -1.16049        6.33109        5.36020
H         -0.89913        5.59054        6.14658
H         -0.28658        6.44766        4.68713
H         -1.97704        5.90371        4.74356
C         -1.88437        8.70342        4.89467
H         -2.71789        8.36298        4.24866
H         -1.00339        8.85433        4.23944
H         -2.16412        9.68388        5.33710
C         -5.99282        5.02049        5.34097
C         -6.64892        4.79635        4.11221
C         -4.97468        4.12316        5.71510
C         -6.37270        3.66595        3.34710
H         -7.39789        5.48276        3.74088
C         -4.68356        3.00351        4.94140
H         -4.42421        4.25748        6.63783
C         -5.41104        2.73798        3.76399
H         -6.93124        3.50227        2.43360
H         -3.91732        2.34057        5.31217
C         -5.25614        1.46734        2.95278
C         -4.13724        0.53438        3.43906
O         -6.46780        0.75851        3.02705
H         -6.97686        0.94506        2.19441
H         -5.04652        1.72470        1.89227
O         -2.84365        1.05799        3.16002
H         -4.27619       -0.49671        3.07174
H         -4.23290        0.34585        4.52702
C         -2.39960        0.92983        1.80022
C         -2.89014       -0.39884        1.09797
O         -2.39824       -0.62973       -0.19950
H         -2.65700       -1.28150        1.73796
H         -3.99126       -0.36649        0.97432
C         -3.19376        4.72500       -0.27160
C         -3.57636        3.49160       -0.83837
C         -2.45094        4.68777        0.92327
C         -3.32642        2.28007       -0.19637
H         -4.09621        3.45350       -1.78674
C         -2.18930        3.46349        1.56910
H         -2.11561        5.60717        1.38739
C         -2.65228        2.24063        1.03598
H         -3.68595        1.38422       -0.67698
H         -1.64641        3.47377        2.50607
H         -1.29724        0.84191        1.88309
C          3.91437        4.17854       -1.26110
C          2.53338        4.18187       -0.94011
C          4.37079        2.99506       -1.91916
C          1.73116        3.04425       -1.20324
H          2.03389        5.03028       -0.51494
C          3.60837        1.89990       -2.15118
H          5.34570        2.81073       -2.29490
C          2.28740        1.87918       -1.78639
H          0.68270        3.07621       -0.93810
C         -1.01225       -0.84520       -0.19551
C         -0.38555        0.36069       -0.83670
H         -0.78316       -1.75186       -0.79584
H         -0.56804       -1.02317        0.81382
O          0.99761        0.20255       -0.78328
H         -0.63583        1.28372       -0.28881
H         -0.82661        0.44163       -1.86574
C          1.49606        0.61611       -2.00887
C          2.24844       -0.58576       -2.60562
H          2.64790       -0.35130       -3.61326
H          1.56464       -1.45408       -2.69388
H          3.08154       -0.88469       -1.92770
H          4.10156        1.06244       -2.62194
