72
	Energy:      91.0890436
C         -1.92971       -2.56063        0.60968
O         -2.42685       -1.50971        0.98353
N         -2.72784       -3.64534        0.30795
N         -0.56106       -2.68211        0.48263
N         -2.16593       -4.78394       -0.09752
N         -0.03762       -3.83708        0.07298
C         -0.82150       -4.90291       -0.22404
C         -4.18812       -3.60470        0.41330
H         -4.56134       -2.61749        0.75744
H         -4.52927       -4.37549        1.13611
H         -4.63713       -3.81760       -0.57980
C          0.36069       -1.58503        0.78307
C          3.11584       -2.16424        3.67119
O          2.40370       -1.19311        3.87531
N          3.07808       -3.24410        4.52517
N          3.96783       -2.19913        2.58578
N          3.86139       -4.29699        4.29528
N          4.73791       -3.26918        2.38769
C          2.19171       -3.26324        5.68835
C          4.06753       -1.09853        1.62541
C         -0.73208       -6.56341       -2.07686
C         -0.21590       -6.20513       -0.68390
O          1.19655       -6.10229       -0.75121
C          3.26590       -6.14147        0.43545
O          3.87803       -6.55744        1.63777
C          5.24393       -6.17630        1.65677
C          5.58440       -5.53451        3.00588
O          6.96146       -5.19165        2.99632
C          4.69972       -4.32976        3.23156
H          5.10866       -0.71296        1.61055
H          3.38836       -0.25656        1.87457
H          2.30344       -4.21460        6.25233
H          1.13490       -3.17186        5.35888
H         -0.16583       -0.66735        1.11898
H          0.95042       -1.33563       -0.12403
H          1.05494       -1.90051        1.58770
H          5.52500       -5.45025        0.85387
H          5.86895       -7.08319        1.50856
H         -0.29009       -7.52850       -2.40397
H         -1.83801       -6.67031       -2.07011
H          5.39299       -6.30136        3.79224
H         -0.54659       -7.02332        0.00099
C          1.79259       -6.52364        0.45904
H          3.74581       -6.64204       -0.43656
H          3.32165       -5.03277        0.33051
H          1.71178       -7.62923        0.55996
H          1.32611       -6.01940        1.33745
H          3.80382       -1.46754        0.61175
H          2.44113       -2.42040        6.36726
H         -0.44954       -5.77607       -2.80880
C          7.35963       -4.57942        4.20992
C          8.87510       -4.73690        4.38803
H          6.86487       -5.04338        5.09618
H          7.11281       -3.49503        4.16439
O          9.52466       -4.20570        3.26191
H         10.38223       -4.69650        3.16188
C          9.38768       -4.04304        5.62638
H          9.08116       -5.83033        4.47096
N          8.56365       -3.31871        6.42623
N          9.01894       -2.68997        7.50924
C          8.06002       -1.92363        8.30797
H          8.53401       -1.43461        9.18455
H          7.26003       -2.59954        8.67661
H          7.60136       -1.13315        7.67680
C         10.35694       -2.77646        7.83322
N         11.19296       -3.51383        7.02372
C         12.61963       -3.63906        7.32099
H         12.75753       -4.11142        8.31678
H         13.09498       -2.63518        7.32034
H         13.12645       -4.26948        6.55877
O         10.79803       -2.20894        8.82065
N         10.70242       -4.12588        5.94587
