LAMMPS data file via polygen.toy.py, on [timestamp]

8400 atoms
5 atom types
9550 bonds
5 bond types
15400 angles
8 angle types

-533.4243260070865 533.4243260070866 xlo xhi
-533.4243260070865 533.4243260070866 ylo yhi
-533.4243260070865 533.4243260070866 zlo zhi

Masses

1 30.00614
2 30.06964
3 26.03788
4 29.01834
5 58.08004

Atoms

1     0     5     0.000000   352.838918           -287.595253          126.969533          
2     0     5     0.000000   350.025406           -290.329985          125.210161          
3     0     5     0.000000   347.211893           -293.064716          123.450789          
4     0     5     0.000000   344.398381           -295.799448          121.691417          
5     0     5     0.000000   341.584869           -298.534180          119.932045          
6     0     5     0.000000   338.771356           -301.268912          118.172673          
7     0     5     0.000000   335.957844           -304.003644          116.413301          
8     0     5     0.000000   333.144332           -306.738376          114.653929          
9     0     5     0.000000   330.330820           -309.473108          112.894557          
10    0     5     0.000000   327.517307           -312.207840          111.135185          
11    0     5     0.000000   324.703795           -314.942572          109.375813          
12    0     5     0.000000   321.890283           -317.677304          107.616441          
13    0     5     0.000000   319.076771           -320.412036          105.857069          
14    0     5     0.000000   316.263258           -323.146768          104.097697          
15    0     5     0.000000   313.449746           -325.881500          102.338325          
16    0     5     0.000000   310.636234           -328.616232          100.578953          
17    0     5     0.000000   307.822722           -331.350964          98.819581           
18    0     5     0.000000   305.009209           -334.085695          97.060209           
19    0     5     0.000000   302.195697           -336.820427          95.300837           
20    0     5     0.000000   299.382185           -339.555159          93.541465           
21    0     5     0.000000   296.568673           -342.289891          91.782093           
22    0     5     0.000000   293.755160           -345.024623          90.022720           
23    0     5     0.000000   290.941648           -347.759355          88.263348           
24    0     5     0.000000   288.128136           -350.494087          86.503976           
25    0     1     0.000000   357.688244           -291.785229          121.803469          
26    0     2     0.000000   355.462618           -292.307760          122.317190          
27    0     2     0.000000   358.520416           -289.710379          121.171633          
28    0     3     0.000000   355.498255           -290.726262          122.593539          
29    0     3     0.000000   357.660443           -289.316107          122.476412          
30    0     4     0.000000   355.751252           -288.679465          123.997532          
31    0     1     0.000000   344.158087           -290.530335          130.980302          
32    0     2     0.000000   344.276823           -291.925632          129.101631          
33    0     2     0.000000   344.343907           -288.214859          131.008061          
34    0     3     0.000000   345.078646           -290.629372          128.596096          
35    0     3     0.000000   345.629140           -288.619211          130.123683          
36    0     4     0.000000   347.113071           -289.245772          128.182163          
37    0     1     0.000000   352.061220           -297.254693          118.284725          
38    0     2     0.000000   349.835594           -297.777224          118.798446          
39    0     2     0.000000   352.893392           -295.179842          117.652889          
40    0     3     0.000000   349.871230           -296.195726          119.074795          
41    0     3     0.000000   352.033419           -294.785571          118.957668          
42    0     4     0.000000   350.124227           -294.148929          120.478788          
43    0     1     0.000000   338.531063           -295.999799          127.461558          
44    0     2     0.000000   338.649798           -297.395096          125.582887          
45    0     2     0.000000   338.716882           -293.684322          127.489317          
46    0     3     0.000000   339.451621           -296.098836          125.077352          
47    0     3     0.000000   340.002116           -294.088675          126.604939          
48    0     4     0.000000   341.486047           -294.715236          124.663419          
49    0     1     0.000000   346.434195           -302.724157          114.765981          
50    0     2     0.000000   344.208569           -303.246688          115.279702          
51    0     2     0.000000   347.266367           -300.649306          114.134145          
52    0     3     0.000000   344.244206           -301.665190          115.556051          
53    0     3     0.000000   346.406394           -300.255035          115.438924          
54    0     4     0.000000   344.497203           -299.618393          116.960044          
55    0     1     0.000000   332.904038           -301.469263          123.942814          
56    0     2     0.000000   333.022774           -302.864560          122.064143          
57    0     2     0.000000   333.089858           -299.153786          123.970573          
58    0     3     0.000000   333.824597           -301.568300          121.558608          
59    0     3     0.000000   334.375091           -299.558139          123.086195          
60    0     4     0.000000   335.859022           -300.184699          121.144675          
61    0     1     0.000000   340.807171           -308.193621          111.247237          
62    0     2     0.000000   338.581545           -308.716152          111.760958          
63    0     2     0.000000   341.639343           -306.118770          110.615401          
64    0     3     0.000000   338.617181           -307.134653          112.037307          
65    0     3     0.000000   340.779370           -305.724499          111.920180          
66    0     4     0.000000   338.870178           -305.087857          113.441300          
67    0     1     0.000000   327.277014           -306.938727          120.424070          
68    0     2     0.000000   327.395749           -308.334024          118.545399          
69    0     2     0.000000   327.462833           -304.623250          120.451829          
70    0     3     0.000000   328.197572           -307.037764          118.039864          
71    0     3     0.000000   328.748067           -305.027603          119.567451          
72    0     4     0.000000   330.231998           -305.654163          117.625931          
73    0     1     0.000000   335.180146           -313.663085          107.728493          
74    0     2     0.000000   332.954520           -314.185616          108.242214          
75    0     2     0.000000   336.012318           -311.588234          107.096657          
76    0     3     0.000000   332.990157           -312.604117          108.518563          
77    0     3     0.000000   335.152345           -311.193963          108.401436          
78    0     4     0.000000   333.243154           -310.557321          109.922556          
79    0     1     0.000000   321.649989           -312.408191          116.905326          
80    0     2     0.000000   321.768725           -313.803488          115.026655          
81    0     2     0.000000   321.835809           -310.092714          116.933085          
82    0     3     0.000000   322.570548           -312.507228          114.521120          
83    0     3     0.000000   323.121042           -310.497067          116.048707          
84    0     4     0.000000   324.604973           -311.123627          114.107187          
85    0     1     0.000000   329.553122           -319.132548          104.209749          
86    0     2     0.000000   327.327496           -319.655079          104.723470          
87    0     2     0.000000   330.385294           -317.057698          103.577913          
88    0     3     0.000000   327.363132           -318.073581          104.999818          
89    0     3     0.000000   329.525321           -316.663427          104.882692          
90    0     4     0.000000   327.616129           -316.026785          106.403812          
91    0     1     0.000000   316.022965           -317.877655          113.386582          
92    0     2     0.000000   316.141700           -319.272952          111.507910          
93    0     2     0.000000   316.208784           -315.562178          113.414341          
94    0     3     0.000000   316.943523           -317.976692          111.002376          
95    0     3     0.000000   317.494018           -315.966531          112.529963          
96    0     4     0.000000   318.977949           -316.593091          110.588442          
97    0     1     0.000000   323.926097           -324.602012          100.691005          
98    0     2     0.000000   321.700471           -325.124543          101.204725          
99    0     2     0.000000   324.758269           -322.527162          100.059169          
100   0     3     0.000000   321.736108           -323.543045          101.481074          
101   0     3     0.000000   323.898296           -322.132891          101.363948          
102   0     4     0.000000   321.989105           -321.496249          102.885067          
103   0     1     0.000000   310.395940           -323.347118          109.867838          
104   0     2     0.000000   310.514676           -324.742415          107.989166          
105   0     2     0.000000   310.581760           -321.031642          109.895597          
106   0     3     0.000000   311.316498           -323.446155          107.483632          
107   0     3     0.000000   311.866993           -321.435995          109.011219          
108   0     4     0.000000   313.350924           -322.062555          107.069698          
109   0     1     0.000000   318.299073           -330.071476          97.172261           
110   0     2     0.000000   316.073447           -330.594007          97.685981           
111   0     2     0.000000   319.131245           -327.996626          96.540425           
112   0     3     0.000000   316.109083           -329.012509          97.962330           
113   0     3     0.000000   318.271272           -327.602354          97.845204           
114   0     4     0.000000   316.362080           -326.965712          99.366323           
115   0     1     0.000000   304.768916           -328.816582          106.349094          
116   0     2     0.000000   304.887651           -330.211879          104.470422          
117   0     2     0.000000   304.954735           -326.501106          106.376853          
118   0     3     0.000000   305.689474           -328.915619          103.964887          
119   0     3     0.000000   306.239969           -326.905458          105.492475          
120   0     4     0.000000   307.723900           -327.532019          103.550954          
121   0     1     0.000000   312.672048           -335.540940          93.653517           
122   0     2     0.000000   310.446422           -336.063471          94.167237           
123   0     2     0.000000   313.504220           -333.466090          93.021681           
124   0     3     0.000000   310.482059           -334.481973          94.443586           
125   0     3     0.000000   312.644247           -333.071818          94.326460           
126   0     4     0.000000   310.735056           -332.435176          95.847579           
127   0     1     0.000000   299.141891           -334.286046          102.830350          
128   0     2     0.000000   299.260627           -335.681343          100.951678          
129   0     2     0.000000   299.327711           -331.970569          102.858109          
130   0     3     0.000000   300.062449           -334.385083          100.446143          
131   0     3     0.000000   300.612944           -332.374922          101.973731          
132   0     4     0.000000   302.096875           -333.001483          100.032210          
133   0     1     0.000000   307.045023           -341.010404          90.134773           
134   0     2     0.000000   304.819398           -341.532935          90.648493           
135   0     2     0.000000   307.877196           -338.935553          89.502937           
136   0     3     0.000000   304.855034           -339.951437          90.924842           
137   0     3     0.000000   307.017223           -338.541282          90.807715           
138   0     4     0.000000   305.108031           -337.904640          92.328835           
139   0     1     0.000000   293.514867           -339.755510          99.311606           
140   0     2     0.000000   293.633602           -341.150807          97.432934           
141   0     2     0.000000   293.700686           -337.440033          99.339365           
142   0     3     0.000000   294.435425           -339.854547          96.927399           
143   0     3     0.000000   294.985920           -337.844386          98.454986           
144   0     4     0.000000   296.469851           -338.470946          96.513466           
145   0     1     0.000000   301.417999           -346.479868          86.616028           
146   0     2     0.000000   299.192373           -347.002399          87.129749           
147   0     2     0.000000   302.250171           -344.405017          85.984193           
148   0     3     0.000000   299.228010           -345.420900          87.406098           
149   0     3     0.000000   301.390198           -344.010746          87.288971           
150   0     4     0.000000   299.481007           -343.374104          88.810091           
151   0     1     0.000000   287.887842           -345.224974          95.792861           
152   0     2     0.000000   288.006577           -346.620271          93.914190           
153   0     2     0.000000   288.073662           -342.909497          95.820620           
154   0     3     0.000000   288.808400           -345.324011          93.408655           
155   0     3     0.000000   289.358895           -343.313850          94.936242           
156   0     4     0.000000   290.842826           -343.940410          92.994722           
157   0     1     0.000000   295.790974           -351.949332          83.097284           
158   0     2     0.000000   293.565348           -352.471863          83.611005           
159   0     2     0.000000   296.623147           -349.874481          82.465448           
160   0     3     0.000000   293.600985           -350.890364          83.887354           
161   0     3     0.000000   295.763174           -349.480210          83.770227           
162   0     4     0.000000   293.853982           -348.843568          85.291347           
163   0     1     0.000000   282.260818           -350.694438          92.274117           
164   0     2     0.000000   282.379553           -352.089735          90.395446           
165   0     2     0.000000   282.446637           -348.378961          92.301876           
166   0     3     0.000000   283.181376           -350.793475          89.889911           
167   0     3     0.000000   283.731871           -348.783314          91.417498           
168   0     4     0.000000   285.215802           -349.409874          89.475978           
169   1     5     0.000000   -140.617442          312.456097           -143.164058         
170   1     5     0.000000   -137.698362          313.065504           -140.066060         
171   1     5     0.000000   -134.779283          313.674910           -136.968061         
172   1     5     0.000000   -131.860203          314.284316           -133.870062         
173   1     5     0.000000   -128.941123          314.893723           -130.772063         
174   1     5     0.000000   -126.022043          315.503129           -127.674064         
175   1     5     0.000000   -123.102963          316.112535           -124.576065         
176   1     5     0.000000   -120.183883          316.721942           -121.478067         
177   1     5     0.000000   -117.264803          317.331348           -118.380068         
178   1     5     0.000000   -114.345724          317.940754           -115.282069         
179   1     5     0.000000   -111.426644          318.550161           -112.184070         
180   1     5     0.000000   -108.507564          319.159567           -109.086071         
181   1     5     0.000000   -105.588484          319.768973           -105.988073         
182   1     5     0.000000   -102.669404          320.378380           -102.890074         
183   1     5     0.000000   -99.750324           320.987786           -99.792075          
184   1     5     0.000000   -96.831244           321.597192           -96.694076          
185   1     5     0.000000   -93.912164           322.206599           -93.596077          
186   1     5     0.000000   -90.993085           322.816005           -90.498079          
187   1     5     0.000000   -88.074005           323.425411           -87.400080          
188   1     5     0.000000   -85.154925           324.034818           -84.302081          
189   1     5     0.000000   -82.235845           324.644224           -81.204082          
190   1     5     0.000000   -79.316765           325.253630           -78.106083          
191   1     5     0.000000   -76.397685           325.863037           -75.008085          
192   1     5     0.000000   -73.478605           326.472443           -71.910086          
193   1     1     0.000000   -136.032386          318.458444           -146.436546         
194   1     2     0.000000   -135.869285          317.655143           -144.241446         
195   1     2     0.000000   -136.066884          317.191209           -148.383250         
196   1     3     0.000000   -136.468108          316.379619           -145.011658         
197   1     3     0.000000   -137.175815          316.428808           -147.496420         
198   1     4     0.000000   -138.284828          314.883314           -145.839414         
199   1     1     0.000000   -141.696730          310.136314           -133.493922         
200   1     2     0.000000   -139.655930          311.286866           -133.452421         
201   1     2     0.000000   -142.248921          308.330392           -134.846868         
202   1     3     0.000000   -139.641081          310.649902           -134.926475         
203   1     3     0.000000   -141.639663          309.355863           -135.930688         
204   1     4     0.000000   -140.030977          310.638287           -137.390704         
205   1     1     0.000000   -130.194226          319.677257           -140.240548         
206   1     2     0.000000   -130.031126          318.873955           -138.045449         
207   1     2     0.000000   -130.228724          318.410022           -142.187253         
208   1     3     0.000000   -130.629948          317.598432           -138.815660         
209   1     3     0.000000   -131.337656          317.647621           -141.300423         
210   1     4     0.000000   -132.446668          316.102127           -139.643417         
211   1     1     0.000000   -135.858571          311.355127           -127.297924         
212   1     2     0.000000   -133.817770          312.505678           -127.256424         
213   1     2     0.000000   -136.410761          309.549205           -128.650870         
214   1     3     0.000000   -133.802921          311.868715           -128.730477         
215   1     3     0.000000   -135.801504          310.574676           -129.734690         
216   1     4     0.000000   -134.192817          311.857100           -131.194706         
217   1     1     0.000000   -124.356066          320.896070           -134.044551         
218   1     2     0.000000   -124.192966          320.092768           -131.849451         
219   1     2     0.000000   -124.390565          319.628835           -135.991255         
220   1     3     0.000000   -124.791789          318.817244           -132.619663         
221   1     3     0.000000   -125.499496          318.866434           -135.104425         
222   1     4     0.000000   -126.608508          317.320939           -133.447419         
223   1     1     0.000000   -130.020411          312.573940           -121.101927         
224   1     2     0.000000   -127.979610          313.724491           -121.060426         
225   1     2     0.000000   -130.572601          310.768017           -122.454872         
226   1     3     0.000000   -127.964761          313.087527           -122.534479         
227   1     3     0.000000   -129.963344          311.793488           -123.538692         
228   1     4     0.000000   -128.354658          313.075912           -124.998708         
229   1     1     0.000000   -118.517906          322.114882           -127.848553         
230   1     2     0.000000   -118.354806          321.311581           -125.653453         
231   1     2     0.000000   -118.552405          320.847647           -129.795257         
232   1     3     0.000000   -118.953629          320.036057           -126.423665         
233   1     3     0.000000   -119.661336          320.085246           -128.908427         
234   1     4     0.000000   -120.770349          318.539752           -127.251421         
235   1     1     0.000000   -124.182251          313.792752           -114.905929         
236   1     2     0.000000   -122.141450          314.943304           -114.864429         
237   1     2     0.000000   -124.734441          311.986830           -116.258875         
238   1     3     0.000000   -122.126601          314.306340           -116.338482         
239   1     3     0.000000   -124.125184          313.012301           -117.342695         
240   1     4     0.000000   -122.516498          314.294725           -118.802711         
241   1     1     0.000000   -112.679747          323.333695           -121.652555         
242   1     2     0.000000   -112.516646          322.530393           -119.457456         
243   1     2     0.000000   -112.714245          322.066460           -123.599260         
244   1     3     0.000000   -113.115469          321.254870           -120.227667         
245   1     3     0.000000   -113.823176          321.304059           -122.712430         
246   1     4     0.000000   -114.932189          319.758565           -121.055424         
247   1     1     0.000000   -118.344091          315.011565           -108.709932         
248   1     2     0.000000   -116.303291          316.162116           -108.668431         
249   1     2     0.000000   -118.896282          313.205643           -110.062877         
250   1     3     0.000000   -116.288442          315.525153           -110.142484         
251   1     3     0.000000   -118.287024          314.231114           -111.146697         
252   1     4     0.000000   -116.678338          315.513538           -112.606713         
253   1     1     0.000000   -106.841587          324.552508           -115.456558         
254   1     2     0.000000   -106.678487          323.749206           -113.261458         
255   1     2     0.000000   -106.876085          323.285273           -117.403262         
256   1     3     0.000000   -107.277309          322.473682           -114.031670         
257   1     3     0.000000   -107.985017          322.522872           -116.516432         
258   1     4     0.000000   -109.094029          320.977377           -114.859426         
259   1     1     0.000000   -112.505932          316.230378           -102.513934         
260   1     2     0.000000   -110.465131          317.380929           -102.472433         
261   1     2     0.000000   -113.058122          314.424455           -103.866880         
262   1     3     0.000000   -110.450282          316.743965           -103.946486         
263   1     3     0.000000   -112.448865          315.449926           -104.950699         
264   1     4     0.000000   -110.840178          316.732350           -106.410716         
265   1     1     0.000000   -101.003427          325.771320           -109.260560         
266   1     2     0.000000   -100.840327          324.968019           -107.065460         
267   1     2     0.000000   -101.037926          324.504085           -111.207264         
268   1     3     0.000000   -101.439150          323.692495           -107.835672         
269   1     3     0.000000   -102.146857          323.741684           -110.320435         
270   1     4     0.000000   -103.255869          322.196190           -108.663428         
271   1     1     0.000000   -106.667772          317.449190           -96.317936          
272   1     2     0.000000   -104.626971          318.599742           -96.276436          
273   1     2     0.000000   -107.219962          315.643268           -97.670882          
274   1     3     0.000000   -104.612122          317.962778           -97.750489          
275   1     3     0.000000   -106.610705          316.668739           -98.754702          
276   1     4     0.000000   -105.002019          317.951163           -100.214718         
277   1     1     0.000000   -95.165267           326.990133           -103.064563         
278   1     2     0.000000   -95.002167           326.186831           -100.869463         
279   1     2     0.000000   -95.199766           325.722898           -105.011267         
280   1     3     0.000000   -95.600990           324.911308           -101.639675         
281   1     3     0.000000   -96.308697           324.960497           -104.124437         
282   1     4     0.000000   -97.417710           323.415003           -102.467431         
283   1     1     0.000000   -100.829612          318.668003           -90.121939          
284   1     2     0.000000   -98.788811           319.818554           -90.080438          
285   1     2     0.000000   -101.381802          316.862081           -91.474884          
286   1     3     0.000000   -98.773962           319.181591           -91.554491          
287   1     3     0.000000   -100.772545          317.887552           -92.558704          
288   1     4     0.000000   -99.163859           319.169976           -94.018720          
289   1     1     0.000000   -89.327108           328.208946           -96.868565          
290   1     2     0.000000   -89.164007           327.405644           -94.673465          
291   1     2     0.000000   -89.361606           326.941711           -98.815269          
292   1     3     0.000000   -89.762830           326.130120           -95.443677          
293   1     3     0.000000   -90.470538           326.179310           -97.928439          
294   1     4     0.000000   -91.579550           324.633815           -96.271433          
295   1     1     0.000000   -94.991452           319.886816           -83.925941          
296   1     2     0.000000   -92.950652           321.037367           -83.884441          
297   1     2     0.000000   -95.543643           318.080893           -85.278887          
298   1     3     0.000000   -92.935803           320.400403           -85.358494          
299   1     3     0.000000   -94.934385           319.106364           -86.362707          
300   1     4     0.000000   -93.325699           320.388788           -87.822723          
301   1     1     0.000000   -83.488948           329.427758           -90.672567          
302   1     2     0.000000   -83.325848           328.624457           -88.477468          
303   1     2     0.000000   -83.523446           328.160523           -92.619272          
304   1     3     0.000000   -83.924670           327.348933           -89.247679          
305   1     3     0.000000   -84.632378           327.398122           -91.732442          
306   1     4     0.000000   -85.741390           325.852628           -90.075436          
307   1     1     0.000000   -89.153293           321.105628           -77.729943          
308   1     2     0.000000   -87.112492           322.256180           -77.688443          
309   1     2     0.000000   -89.705483           319.299706           -79.082889          
310   1     3     0.000000   -87.097643           321.619216           -79.162496          
311   1     3     0.000000   -89.096226           320.325177           -80.166709          
312   1     4     0.000000   -87.487539           321.607601           -81.626725          
313   1     1     0.000000   -77.650788           330.646571           -84.476570          
314   1     2     0.000000   -77.487688           329.843269           -82.281470          
315   1     2     0.000000   -77.685287           329.379336           -86.423274          
316   1     3     0.000000   -78.086511           328.567746           -83.051682          
317   1     3     0.000000   -78.794218           328.616935           -85.536444          
318   1     4     0.000000   -79.903230           327.071441           -83.879438          
319   1     1     0.000000   -83.315133           322.324441           -71.533946          
320   1     2     0.000000   -81.274332           323.474992           -71.492445          
321   1     2     0.000000   -83.867323           320.518519           -72.886892          
322   1     3     0.000000   -81.259483           322.838029           -72.966498          