
                                 *****************
                                 * O   R   C   A *
                                 *****************

                                            #,                                       
                                            ###                                      
                                            ####                                     
                                            #####                                    
                                            ######                                   
                                           ########,                                 
                                     ,,################,,,,,                         
                               ,,#################################,,                 
                          ,,##########################################,,             
                       ,#########################################, ''#####,          
                    ,#############################################,,   '####,        
                  ,##################################################,,,,####,       
                ,###########''''           ''''###############################       
              ,#####''   ,,,,##########,,,,          '''####'''          '####       
            ,##' ,,,,###########################,,,                        '##       
           ' ,,###''''                  '''############,,,                           
         ,,##''                                '''############,,,,        ,,,,,,###''
      ,#''                                            '''#######################'''  
     '                                                          ''''####''''         
             ,#######,   #######,   ,#######,      ##                                
            ,#'     '#,  ##    ##  ,#'     '#,    #''#        ,####,   ,####,        
            ##       ##  ##   ,#'  ##            #'  '#       #'       #'  '#        
            ##       ##  #######   ##           ,######,      #####,   #    #        
            '#,     ,#'  ##    ##  '#,     ,#' ,#      #,     #,   #   #,  ,#        
             '#######'   ##     ##  '#######'  #'      '#     '####' # '####'        



                #########################################################
                #                        -***-                          #
                #          Department of theory and spectroscopy        #
                #                                                       #
                #                      Frank Neese                      #
                #                                                       #
                #     Directorship, Architecture, Infrastructure        #
                #                    SHARK, DRIVERS                     #
                #        Core code/Algorithms in most modules           #
                #                                                       #
                #        Max Planck Institute fuer Kohlenforschung      #
                #                Kaiser Wilhelm Platz 1                 #
                #                 D-45470 Muelheim/Ruhr                 #
                #                      Germany                          #
                #                                                       #
                #                  All rights reserved                  #
                #                        -***-                          #
                #########################################################


                         Program Version 6.0.1  -  RELEASE   -


 With contributions from (in alphabetic order):
[Max-Planck-Institut fuer Kohlenforschung]                               
  Daniel Aravena         : Magnetic Suceptibility                        
  Michael Atanasov       : Ab Initio Ligand Field Theory (pilot matlab implementation)
  Alexander A. Auer      : GIAO ZORA, VPT2 properties, NMR spectrum      
  Ute Becker             : All parallelization in ORCA, NUMFREQ, NUMCALC 
  Giovanni Bistoni       : ED, misc. LED, open-shell LED, HFLD           
  Martin Brehm           : Molecular dynamics                            
  Dmytro Bykov           : pre 5.0 version of the SCF Hessian            
  Marcos Casanova-Páez   : Triplet and SCS-CIS(D). UHF-(DLPNO)-IP/EA/STEOM-CCSD. UHF-CVS-IP/STEOM-CCSD   
  Vijay G. Chilkuri      : MRCI spin determinant printing, contributions to CSF-ICE 
  Pauline Colinet        : FMM embedding                                 
  Dipayan Datta          : RHF DLPNO-CCSD density                        
  Achintya Kumar Dutta   : EOM-CC, STEOM-CC                              
  Nicolas Foglia         : Exact transition moments, OPA infrastructure, MCD improvements    
  Dmitry Ganyushin       : Spin-Orbit,Spin-Spin,Magnetic field MRCI      
  Miquel Garcia-Rates    : C-PCM and meta-GGA Hessian, CCSD/C-PCM, Gaussian charge scheme 
  Tiago L. C. Gouveia    : GS-ROHF, GS-ROCIS                             
  Yang Guo               : DLPNO-NEVPT2, F12-NEVPT2, CIM, IAO-localization        
  Andreas Hansen         : Spin unrestricted coupled pair/coupled cluster methods 
  Ingolf Harden          : AUTO-CI MPn and infrastructure                
  Benjamin Helmich-Paris : MC-RPA, TRAH-(SCF,CASSCF), AVAS, COSX integrals, SCF dyn. polar. 
  Lee Huntington         : MR-EOM, pCC                                   
  Robert Izsak           : Overlap fitted RIJCOSX, COSX-SCS-MP3, EOM     
  Riya Kayal             : Wick's Theorem for AUTO-CI, AUTO-CI UHF-CCSDT 
  Emily Kempfer          : AUTO-CI, RHF CISDT and CCSDT                  
  Christian Kollmar      : KDIIS, OOCD, Brueckner-CCSD(T), CCSD density, CASPT2, CASPT2-K, improved NEVPT2 
  Axel Koslowski         : Symmetry handling                             
  Simone Kossmann        : meta-GGA functionals, TD-DFT gradient, OOMP2, (MP2 Hessian; deprecated post 5.0) 
  Lucas Lang             : DCDCAS                                        
  Marvin Lechner         : AUTO-CI (C++ implementation), FIC-MRCC        
  Spencer Leger          : CASSCF response                               
  Dagmar Lenk            : GEPOL surface, SMD, ORCA-2-JSON               
  Dimitrios Liakos       : Extrapolation schemes; Compound Job, initial MDCI parallelization 
  Dimitrios Manganas     : Further ROCIS development; embedding schemes. LFT, Crystal Embedding 
  Dimitrios Pantazis     : SARC Basis sets                               
  Anastasios Papadopoulos: AUTO-CI, single reference methods and gradients 
  Taras Petrenko         : pre 6.0 DFT Hessian and TD-DFT gradient, (ASA, deprecated), ECA, 1-Electron XAS/XES, NRVS 
  Peter Pinski           : DLPNO-MP2, DLPNO-MP2 Gradient                 
  Christoph Reimann      : Effective Core Potentials                     
  Marius Retegan         : Local ZFS, SOC                                
  Christoph Riplinger    : Optimizer, TS searches, QM/MM, DLPNO-CCSD(T), (RO)-DLPNO pert. Triples 
  Michael Roemelt        : Original ROCIS implementation                 
  Masaaki Saitow         : Open-shell DLPNO-CCSD energy and density      
  Barbara Sandhoefer     : DKH picture change effects                    
  Kantharuban Sivalingam : CASSCF convergence/infrastructure, NEVPT2 and variants, FIC-MRCI 
  Bernardo de Souza      : ESD, SOC TD-DFT                               
  Georgi L. Stoychev     : AutoAux, RI-MP2 NMR, DLPNO-MP2 response, X2C  
  Van Anh Tran           : RI-MP2 g-tensors                              
  Willem Van den Heuvel  : Paramagnetic NMR                              
  Zikuan Wang            : NOTCH, Electric field optimization            
  Frank Wennmohs         : Technical directorship and infrastructure     
  Hang Xu                : AUTO-CI-Response properties                   
                                                                         
[FACCTs GmbH]                                                            
  Markus Bursch, Miquel Garcia-Rates, Christoph Riplinger, Bernardo de Souza, Georgi L. Stoychev 
                                                                 
  APM, Basis sets (HGBS, AHGBS, def-TZVP (Ac-Lr), def2-XVPD (La-Lu)), CI-OPT, improved COSX, DLPNO-Multilevel,           
  DOCKER, DRACO, updates on ESD, GOAT, IRC, LR-CPCM, MBIS, meta-GGA TD-DFT gradient, ML-optimized integration grids, 
  MM, NACMEs, nearIR, NEB, NEB-TS, NL-DFT gradient (VV10), 2- and 3-layer-ONIOM, interface openCOSMO-RS, QMMM,   
  Crystal-QMMM, SF, symmetry and pop. for TD-DFT, r2SCAN hybrids, SOLVATOR                                   
                                                                         
[Other institutions]                                                     
  V. Asgeirsson          : NEB                                           
  Christoph Bannwarth    : sTDA-DFT, sTD-DFT, PBEh-3c, B97-3c, D3        
  Sebastian Ehlert       : rSCAN, r2SCAN, r2SCAN-3c, D4, dhf basis sets  
  Marvin Friede          : D4 for Fr, Ra, Ac-Lr                          
  Lars Goerigk           : TD-DFT with DH, B97 family of functionals     
  Stefan Grimme          : VdW corrections, initial TS optimization, DFT functionals, gCP, sTDA/sTD-DF 
  Waldemar Hujo          : DFT-NL                                        
  H. Jonsson             : NEB                                           
  Holger Kruse           : gCP                                           
  Marcel Mueller         : wB97X-3c, vDZP basis set                      
  Hagen Neugebauer       : wr2SCAN                                       
  Tobias Risthaus        : range-separated hybrid DFT                    
  Lukas Wittmann         : regularized MP2, r2SCAN double-hybrids, wr2SCAN        
                                                                         
We gratefully acknowledge several colleagues who have allowed us to      
interface, adapt or use parts of their codes:                            
  Ed Valeev, F. Pavosevic, A. Kumar             : LibInt (2-el integral package), F12 methods 
  Garnet Chan, S. Sharma, J. Yang, R. Olivares  : DMRG                   
  Ulf Ekstrom                                   : XCFun DFT Library      
  Mihaly Kallay                                 : mrcc  (arbitrary order and MRCC methods)
  Frank Weinhold                                : gennbo (NPA and NBO analysis)           
  Simon Mueller                                 : openCOSMO-RS                            
  Christopher J. Cramer and Donald G. Truhlar   : smd solvation model                     
  S Lehtola, MJT Oliveira, MAL Marques          : LibXC Library                           
  Liviu Ungur et al                             : ANISO software                          


 Your calculation uses the libint2 library for the computation of 2-el integrals
 For citations please refer to: http://libint.valeyev.net

 Your ORCA version has been built with support for libXC version: 6.2.2
 For citations please refer to: https://libxc.gitlab.io

 This ORCA versions uses:
   CBLAS   interface :  Fast vector & matrix operations
   LAPACKE interface :  Fast linear algebra routines
   SCALAPACK package :  Parallel linear algebra routines
   Shared memory     :  Shared parallel matrices
   BLAS/LAPACK       :  OpenBLAS 0.3.27  USE64BITINT DYNAMIC_ARCH NO_AFFINITY Zen SINGLE_THREADED
        Core in use  :  Zen
   Copyright (c) 2011-2014, The OpenBLAS Project




***************************************
The coordinates will be read from file: /temp180/bsavoie2/emille35/mlip_alchemy/sn1_scans/ch3cl/uwb97mv-tzvpd/orca.allxyz
***************************************


****
**** There are 64 structures found in the file
****
Your calculation utilizes the DFT-NL dispersion correction.
Cite in your paper:
Vydrov, O. A.; Van Voorhis, T. J. Chem. Phys. 2010, 133, 244103
Hujo, W.; Grimme, S. J. Chem. Theory Comput. 2011, 7, 3866 
   

Warning: RI is on but no J-basis has been assigned. Assigning Def2/J (nothing to worry about!)
================================================================================

----- Orbital basis set information -----
Your calculation utilizes the basis: def2-TZVPD
   F. Weigend and R. Ahlrichs, Phys. Chem. Chem. Phys. 7, 3297 (2005).
   D. Rappoport and F. Furche, J. Chem. Phys. 133, 134105 (2010)
   D. Rappoport, J. Chem. Phys. 155, 124102 (2021).

----- AuxJ basis set information -----
Your calculation utilizes the auxiliary basis: def2/J
   F. Weigend, Phys. Chem. Chem. Phys. 8, 1057 (2006).

================================================================================
                                        WARNINGS
                       Please study these warnings very carefully!
================================================================================


WARNING: B97M-V or wB97M-V functional requested.
  ===> : libXC variant has now been activated.
         Any manually given DFX/HFX/RangeSep scaling parameters are IGNORED!


================================================================================
                                       INPUT FILE
================================================================================
NAME = orca.inp
|  1> ! UKS wB97M-V def2-TZVPD PAL2
|  2> 
|  3> * xyzfile 1 2 /temp180/bsavoie2/emille35/mlip_alchemy/sn1_scans/ch3cl/uwb97mv-tzvpd/orca.allxyz
|  4> 
|  5>                          ****END OF INPUT****
================================================================================

                      *********************************
                      * Multiple XYZ Scan Calculation *
                      *********************************

Multiple XYZ scan settings:
    -> SCF surface will be mapped

There are 64 structures to be calculated

         *************************************************************
                               MULTIPLE XYZ STEP   1
         *************************************************************
---------------------------------
CARTESIAN COORDINATES (ANGSTROEM)
---------------------------------
  C     -0.011361    0.000097   -0.000042
  Cl     6.988639   -0.000284   -0.000127
  H     -0.005870    0.127880   -1.069946
  H     -0.016667    0.862758    0.645612
  H     -0.009881   -0.990371    0.424263

----------------------------
CARTESIAN COORDINATES (A.U.)
----------------------------
  NO LB      ZA    FRAG     MASS         X           Y           Z
   0 C     6.0000    0    12.011   -0.021469    0.000183   -0.000079
   1 Cl   17.0000    0    35.453   13.206614   -0.000537   -0.000240
   2 H     1.0000    0     1.008   -0.011093    0.241658   -2.021905
   3 H     1.0000    0     1.008   -0.031496    1.630376    1.220030
   4 H     1.0000    0     1.008   -0.018672   -1.871530    0.801741

--------------------------------
INTERNAL COORDINATES (ANGSTROEM)
--------------------------------
 C      0   0   0     0.000000000000     0.00000000     0.00000000
 Cl     1   0   0     7.000000010885     0.00000000     0.00000000
 H      1   2   0     1.077521793462    89.70770116     0.00000000
 H      1   2   3     1.077534798637    90.28505076   239.99799543
 H      1   2   3     1.077526696861    89.91871071   120.00055589

---------------------------
INTERNAL COORDINATES (A.U.)
---------------------------
 C      0   0   0     0.000000000000     0.00000000     0.00000000
 Cl     1   0   0    13.228082958018     0.00000000     0.00000000
 H      1   2   0     2.036221092975    89.70770116     0.00000000
 H      1   2   3     2.036245669193    90.28505076   239.99799543
 H      1   2   3     2.036230359057    89.91871071   120.00055589

---------------------
BASIS SET INFORMATION
---------------------
There are 3 groups of distinct atoms

 Group   1 Type C   : 12s6p3d1f contracted to 6s3p3d1f pattern {621111/411/111/1}
 Group   2 Type Cl  : 15s10p4d1f contracted to 6s6p3d1f pattern {732111/511111/211/1}
 Group   3 Type H   : 5s2p contracted to 3s2p pattern {311/11}

Atom   0C    basis set group =>   1
Atom   1Cl   basis set group =>   2
Atom   2H    basis set group =>   3
Atom   3H    basis set group =>   3
Atom   4H    basis set group =>   3
---------------------------------
AUXILIARY/J BASIS SET INFORMATION
---------------------------------
There are 3 groups of distinct atoms

 Group   1 Type C   : 12s5p4d2f1g contracted to 6s4p3d1f1g pattern {711111/2111/211/2/1}
 Group   2 Type Cl  : 14s5p5d2f1g contracted to 8s4p3d1f1g pattern {71111111/2111/311/2/1}
 Group   3 Type H   : 5s2p1d contracted to 3s1p1d pattern {311/2/1}

Atom   0C    basis set group =>   1
Atom   1Cl   basis set group =>   2
Atom   2H    basis set group =>   3
Atom   3H    basis set group =>   3
Atom   4H    basis set group =>   3


           ************************************************************
           *        Program running with 2 parallel MPI-processes     *
           *              working on a common directory               *
           ************************************************************
------------------------------------------------------------------------------
                             ORCA STARTUP CALCULATIONS
                           -- RI-GTO INTEGRALS CHOSEN --
------------------------------------------------------------------------------
------------------------------------------------------------------------------
                   ___                                                        
                  /   \      - P O W E R E D   B Y -                         
                 /     \                                                     
                 |  |  |   _    _      __       _____    __    __             
                 |  |  |  | |  | |    /  \     |  _  \  |  |  /  |          
                  \  \/   | |  | |   /    \    | | | |  |  | /  /          
                 / \  \   | |__| |  /  /\  \   | |_| |  |  |/  /          
                |  |  |   |  __  | /  /__\  \  |    /   |      \           
                |  |  |   | |  | | |   __   |  |    \   |  |\   \          
                \     /   | |  | | |  |  |  |  | |\  \  |  | \   \       
                 \___/    |_|  |_| |__|  |__|  |_| \__\ |__|  \__/        
                                                                              
                      - O R C A' S   B I G   F R I E N D -                    
                                      &                                       
                       - I N T E G R A L  F E E D E R -                       
                                                                              
 v1 FN, 2020, v2 2021, v3 2022-2024                                           
------------------------------------------------------------------------------


----------------------
SHARK INTEGRAL PACKAGE
----------------------

Number of atoms                             ...      5
Number of basis functions                   ...    110
Number of shells                            ...     44
Maximum angular momentum                    ...      3
Integral batch strategy                     ... SHARK/LIBINT Hybrid
RI-J (if used) integral strategy            ... SPLIT-RIJ (Revised 2003 algorithm where possible)
Printlevel                                  ...      1
Contraction scheme used                     ... SEGMENTED contraction
Prescreening option                         ... SCHWARTZ
   Thresh                                   ... 1.000e-10
   Tcut                                     ... 1.000e-11
   Tpresel                                  ... 1.000e-11 
Coulomb Range Separation                    ... NOT USED
Exchange Range Separation                   ... Long Range
   Mu parameter                             ... 3.000e-01
   Scaling (regular/separated)              ... 1.500e-01 8.500e-01
Multipole approximations                    ... NOT USED
Finite Nucleus Model                        ... NOT USED
CABS basis                                  ... NOT available
Auxiliary Coulomb fitting basis             ... AVAILABLE
   # of basis functions in Aux-J            ...    133
   # of shells in Aux-J                     ...     47
   Maximum angular momentum in Aux-J        ...      4
Auxiliary J/K fitting basis                 ... NOT available
Auxiliary Correlation fitting basis         ... NOT available
Auxiliary 'external' fitting basis          ... NOT available

Checking pre-screening integrals            ... done (  1.1 sec) Dimension = 44
Check shell pair data                       ... done (  0.4 sec)
Shell pair information
Shell pair cut-off parameter TPreSel        ...   1.0e-11
Total number of shell pairs                 ...       990
Shell pairs after pre-screening             ...       791
Total number of primitive shell pairs       ...      2768
Primitive shell pairs kept                  ...      1889
          la=0 lb=0:    186 shell pairs
          la=1 lb=0:    255 shell pairs
          la=1 lb=1:    101 shell pairs
          la=2 lb=0:     98 shell pairs
          la=2 lb=1:     74 shell pairs
          la=2 lb=2:     18 shell pairs
          la=3 lb=0:     28 shell pairs
          la=3 lb=1:     21 shell pairs
          la=3 lb=2:      8 shell pairs
          la=3 lb=3:      2 shell pairs

Calculating one electron integrals          ... done (  0.0 sec)
Calculating RI/J V-Matrix + Cholesky decomp.... done (  0.0 sec)
Calculating Nuclear repulsion               ... done (  0.0 sec) ENN=     21.212188722744 Eh

Diagonalization of the overlap matrix:
Smallest eigenvalue                        ... 6.598e-05
Time for diagonalization                   ...    0.002 sec
Threshold for overlap eigenvalues          ... 1.000e-07
Number of eigenvalues below threshold      ... 0
Time for construction of square roots      ...    0.016 sec
Total time needed                          ...    0.822 sec

-------------------
DFT GRID GENERATION
-------------------

General Integration Accuracy     IntAcc      ... 4.388
Radial Grid Type                 RadialGrid  ... OptM3 with GC (2021)
Angular Grid (max. ang.)         AngularGrid ... 4 (Lebedev-302)
Angular grid pruning method      GridPruning ... 4 (adaptive)
Weight generation scheme         WeightScheme... mBecke (2022)
Basis function cutoff            BFCut       ... 1.0000e-10
Integration weight cutoff        WCut        ... 1.0000e-14
Partially contracted basis set               ... off
Rotationally invariant grid construction     ... off
Angular grids for H and He will be reduced by one unit
Diffuse basis detected: some atoms will have their outermost
                        angular grid increased by 1.

Total number of grid points                  ...    24728
Total number of batches                      ...      388
Average number of points per batch           ...       63
Average number of grid points per atom       ...     4946

--------------------
COSX GRID GENERATION
--------------------

GRIDX 1
-------
General Integration Accuracy     IntAcc      ... 3.816
Radial Grid Type                 RadialGrid  ... OptM3 with GC (2021)
Angular Grid (max. ang.)         AngularGrid ... 1 (Lebedev-50)
Angular grid pruning method      GridPruning ... 4 (adaptive)
Weight generation scheme         WeightScheme... mBecke (2022)
Basis function cutoff            BFCut       ... 1.0000e-10
Integration weight cutoff        WCut        ... 1.0000e-14
Partially contracted basis set               ... on
Rotationally invariant grid construction     ... off
Angular grids for H and He will be reduced by one unit
Diffuse basis detected: some atoms will have their outermost
                        angular grid increased by 1.

Total number of grid points                  ...     4363
Total number of batches                      ...       37
Average number of points per batch           ...      117
Average number of grid points per atom       ...      873
UseSFitting                                  ... on

GRIDX 2
-------
General Integration Accuracy     IntAcc      ... 4.020
Radial Grid Type                 RadialGrid  ... OptM3 with GC (2021)
Angular Grid (max. ang.)         AngularGrid ... 2 (Lebedev-110)
Angular grid pruning method      GridPruning ... 4 (adaptive)
Weight generation scheme         WeightScheme... mBecke (2022)
Basis function cutoff            BFCut       ... 1.0000e-10
Integration weight cutoff        WCut        ... 1.0000e-14
Partially contracted basis set               ... on
Rotationally invariant grid construction     ... off
Angular grids for H and He will be reduced by one unit
Diffuse basis detected: some atoms will have their outermost
                        angular grid increased by 1.

Total number of grid points                  ...     7258
Total number of batches                      ...       60
Average number of points per batch           ...      120
Average number of grid points per atom       ...     1452
UseSFitting                                  ... on

GRIDX 3
-------
General Integration Accuracy     IntAcc      ... 4.338
Radial Grid Type                 RadialGrid  ... OptM3 with GC (2021)
Angular Grid (max. ang.)         AngularGrid ... 3 (Lebedev-194)
Angular grid pruning method      GridPruning ... 4 (adaptive)
Weight generation scheme         WeightScheme... mBecke (2022)
Basis function cutoff            BFCut       ... 1.0000e-10
Integration weight cutoff        WCut        ... 1.0000e-14
Partially contracted basis set               ... on
Rotationally invariant grid construction     ... off
Angular grids for H and He will be reduced by one unit
Diffuse basis detected: some atoms will have their outermost
                        angular grid increased by 1.

Total number of grid points                  ...    17322
Total number of batches                      ...      140
Average number of points per batch           ...      123
Average number of grid points per atom       ...     3464
UseSFitting                                  ... on
Initializing property integral containers    ... done (  1.2 sec)

SHARK setup successfully completed in   8.5 seconds

Maximum memory used throughout the entire STARTUP-calculation: 15.2 MB


           ************************************************************
           *        Program running with 2 parallel MPI-processes     *
           *              working on a common directory               *
           ************************************************************
-------------------------------------------------------------------------------
                                 ORCA GUESS
                   Start orbitals & Density for SCF / CASSCF
-------------------------------------------------------------------------------

------------
SCF SETTINGS
------------
Hamiltonian:
 Density Functional     Method          .... DFT(GTOs)
  Functional kind                       .... Exchange-Correlation
  Functional name                       .... wB97M-V exchange-correlation functional
  Functional family                     .... Hybrid MGGA
  Functional refs                              
    [ 0] N. Mardirossian and M. Head-Gordon.,  J. Chem. Phys. 144, 214110 (2016), doi: 10.1063/1.4952647
  Fraction of HF Exchange (short range) .... 0.1500
  Fraction of HF Exchange (long range)  .... 1.0000
  Range separation parameter mu         .... 0.3000
  Functional external parameters        .... 17
    Parameter  0 _cx00      =  8.500000e-01 : u^00 coefficient for exchange
    Parameter  1 _cx01      =  1.007000e+00 : u^01 coefficient for exchange
    Parameter  2 _cx10      =  2.590000e-01 : u^10 coefficient for exchange
    Parameter  3 _css00     =  4.430000e-01 : u^00 coefficient for same-spin correlation
    Parameter  4 _css04     = -1.437000e+00 : u^04 coefficient for same-spin correlation
    Parameter  5 _css10     = -4.535000e+00 : u^10 coefficient for same-spin correlation
    Parameter  6 _css20     = -3.390000e+00 : u^20 coefficient for same-spin correlation
    Parameter  7 _css43     =  4.278000e+00 : u^43 coefficient for same-spin correlation
    Parameter  8 _cos00     =  1.000000e+00 : u^00 coefficient for opposite-spin correlation
    Parameter  9 _cos10     =  1.358000e+00 : u^10 coefficient for opposite-spin correlation
    Parameter 10 _cos20     =  2.924000e+00 : u^20 coefficient for opposite-spin correlation
    Parameter 11 _cos21     = -8.812000e+00 : u^21 coefficient for opposite-spin correlation
    Parameter 12 _cos60     = -1.390000e+00 : u^60 coefficient for opposite-spin correlation
    Parameter 13 _cos61     =  9.142000e+00 : u^61 coefficient for opposite-spin correlation
    Parameter 14 _alpha     =  1.000000e+00 : fraction of HF exchange
    Parameter 15 _beta      = -8.500000e-01 : fraction of short-range exchange
    Parameter 16 _omega     =  3.000000e-01 : range-separation constant
 Long-range corrected/Screened/Range-Separated Hybrid DFT is turned on
   Amount of maximum screened exact exchange              ....  0.850000
   Range separation parameter mu (erf(mu*r12)/r12)        ....  0.300000
   NL short-range parameter             ....  6.000000
   NL long-range parameter              ....  0.010000
 RI-approximation to the Coulomb term is turned on
   Number of AuxJ basis functions       .... 133
   RIJ-COSX (HFX calculated with COS-X)).... on


General Settings:
 Integral files         IntName         .... orca
 Hartree-Fock type      HFTyp           .... UHF
 Total Charge           Charge          ....    1
 Multiplicity           Mult            ....    2
 Number of Electrons    NEL             ....   25
 Basis Dimension        Dim             ....  110
 Nuclear Repulsion      ENuc            ....     21.2121887227 Eh

Convergence Acceleration:
 AO-DIIS                CNVDIIS         .... on
   Start iteration      DIISMaxIt       ....    12
   Startup error        DIISStart       ....  0.200000
   # of expansion vecs  DIISMaxEq       ....     5
   Bias factor          DIISBfac        ....   1.050
   Max. coefficient     DIISMaxC        ....  10.000
 MO-DIIS                CNVKDIIS        .... off
 Trust-Rad. Augm. Hess. CNVTRAH         .... auto
   Auto Start mean grad. ratio tolernc. ....  1.125000
   Auto Start start iteration           ....    50
   Auto Start num. interpolation iter.  ....    10
   Max. Number of Micro iterations      ....    24
   Max. Number of Macro iterations      .... Maxiter - #DIIS iter
   Number of Davidson start vectors     ....     2
   Converg. threshold    (grad. norm)   ....   5.000e-05
   Grad. Scal. Fac. for Micro threshold ....   0.100
   Minimum threshold for Micro iter.    ....   1.000e-02
   NR start threshold (gradient norm)   ....   1.000e-04
   Initial trust radius                 ....   0.400
   Minimum AH scaling param. (alpha)    ....   1.000
   Maximum AH scaling param. (alpha)    .... 1000.000
   Quad. conv. algorithm                .... NR
   White noise on init. David. guess    .... on
   Maximum white noise                  ....   0.010
   Pseudo random numbers                .... off
   Inactive MOs                         .... canonical
   Orbital update algorithm             .... Taylor
   Preconditioner                       .... Diag
   Full preconditioner red. dimension   ....   250
 SOSCF                  CNVSOSCF        .... on
   Start iteration      SOSCFMaxIt      ....   150
   Startup grad/error   SOSCFStart      ....  0.003300
   Hessian update       SOSCFHessUp     .... L-BFGS
 Level Shifting         CNVShift        .... on
   Level shift para.    LevelShift      ....    0.2500
   Turn off err/grad.   ShiftErr        ....    0.0010
 Zerner damping         CNVZerner       .... off
 Static damping         CNVDamp         .... on
   Fraction old density DampFac         ....    0.7000
   Max. Damping (<1)    DampMax         ....    0.9800
   Min. Damping (>=0)   DampMin         ....    0.0000
   Turn off err/grad.   DampErr         ....    0.1000

SCF Procedure:
 Maximum # iterations   MaxIter         ....   125
 SCF integral mode      SCFMode         .... Direct
   Integral package                     .... SHARK and LIBINT hybrid scheme
 Reset frequency        DirectResetFreq ....    20
 Integral Threshold     Thresh          ....  1.000e-10 Eh
 Primitive CutOff       TCut            ....  1.000e-11 Eh

Convergence Tolerance:
 Convergence Check Mode ConvCheckMode   .... Total+1el-Energy
 Convergence forced     ConvForced      .... 0
 Energy Change          TolE            ....  1.000e-06 Eh
 1-El. energy change                    ....  1.000e-03 Eh
 Orbital Gradient       TolG            ....  5.000e-05
 Orbital Rotation angle TolX            ....  5.000e-05
 DIIS Error             TolErr          ....  1.000e-06

------------------------------
INITIAL GUESS: MODEL POTENTIAL
------------------------------
Loading Hartree-Fock densities                     ... done
Calculating cut-offs                               ... done
Initializing the effective Hamiltonian             ... done
Setting up the integral package (SHARK)            ... done
Starting the Coulomb interaction                   ... done (   1.8 sec)
Making the grid                                    ... done (   0.1 sec)
Mapping shells                                     ... done
Starting the XC term evaluation                    ... done (   0.1 sec)
  promolecular density results
     # of electrons  =     25.998587792
     EX              =    -33.266268071
     EC              =     -0.908344735
     EX+EC           =    -34.174612806
Transforming the Hamiltonian                       ... done (   1.0 sec)
Diagonalizing the Hamiltonian                      ... done (   0.0 sec)
Back transforming the eigenvectors                 ... done (   1.3 sec)
Now organizing SCF variables                       ... done
                      ------------------
                      INITIAL GUESS DONE (  10.8 sec)
                      ------------------
             **** ENERGY FILE WAS UPDATED (orca.en.tmp) ****
Finished Guess after  19.0 sec
Maximum memory used throughout the entire GUESS-calculation: 8.3 MB


           ************************************************************
           *        Program running with 2 parallel MPI-processes     *
           *              working on a common directory               *
           ************************************************************

-------------------------------------------------------------------------------------------
                                      ORCA LEAN-SCF
                              memory conserving SCF solver
-------------------------------------------------------------------------------------------

----------------------------------------D-I-I-S--------------------------------------------
Iteration    Energy (Eh)           Delta-E    RMSDP     MaxDP     DIISErr   Damp  Time(sec)
-------------------------------------------------------------------------------------------
               ***  Starting incremental Fock matrix formation  ***
    1    -499.6868889314328044     0.00e+00  3.25e-04  7.92e-03  2.92e-02  0.700  42.3
    2    -499.6893944101606166    -2.51e-03  2.68e-04  6.65e-03  2.14e-02  0.700  55.1
                               ***Turning on AO-DIIS***
    3    -499.6911490365459940    -1.75e-03  2.14e-04  5.57e-03  1.60e-02  0.700  45.2
    4    -499.6923753687365206    -1.23e-03  5.18e-04  1.27e-02  1.17e-02  0.000  36.0
                              *** Initializing SOSCF ***
---------------------------------------S-O-S-C-F--------------------------------------
Iteration    Energy (Eh)           Delta-E    RMSDP     MaxDP     MaxGrad    Time(sec)
--------------------------------------------------------------------------------------
    5    -499.6953969773011295    -3.02e-03  3.86e-05  7.39e-04  1.13e-03    50.5
               *** Restarting incremental Fock matrix formation ***
    6    -499.6954090836029536    -1.21e-05  2.19e-05  8.57e-04  4.52e-04    36.8
    7    -499.6954114716313597    -2.39e-06  9.59e-06  3.16e-04  1.68e-04    40.7
    8    -499.6954117612809796    -2.90e-07  7.69e-07  2.36e-05  1.01e-05    37.3
                 **** Energy Check signals convergence ****

               *****************************************************
               *                     SUCCESS                       *
               *           SCF CONVERGED AFTER   8 CYCLES          *
               *****************************************************


------------------
NL GRID GENERATION
------------------

General Integration Accuracy     IntAcc      ... 4.004
Radial Grid Type                 RadialGrid  ... OptM3 with GC (2021)
Angular Grid (max. ang.)         AngularGrid ... 2 (Lebedev-110)
Angular grid pruning method      GridPruning ... 4 (adaptive)
Weight generation scheme         WeightScheme... mBecke (2022)
Basis function cutoff            BFCut       ... 1.0000e-10
Integration weight cutoff        WCut        ... 1.0000e-14
Partially contracted basis set               ... off
Rotationally invariant grid construction     ... off
Angular grids for H and He will be reduced by one unit
Diffuse basis detected: some atoms will have their outermost
                        angular grid increased by 1.

Total number of grid points                  ...     8465
Total number of batches                      ...      134
Average number of points per batch           ...       63
Average number of grid points per atom       ...     1693
Final grid set up in    0.1 sec

-------------------------------------------------------------------------------
                    post-SCF DFT-NL dispersion correction                      
-------------------------------------------------------------------------------

SCF Energy:     -499.695411761 
NL    Energy:      0.107373114 
SC+NL Energy:   -499.588038648 
NL done in  :              2.4 sec
-------------------------------------------------------------------------------
Recomputing exchange energy using gridx3       ... done (    4.061 sec)
Old exchange energy                            :     -8.409982865 Eh
New exchange energy                            :     -8.409981636 Eh
Exchange energy change after final integration :      0.000001229 Eh
Total energy after final integration           :   -499.588037418 Eh
             **** ENERGY FILE WAS UPDATED (orca.en.tmp) ****

----------------
TOTAL SCF ENERGY
----------------

Total Energy       :       -499.58803741825528 Eh          -13594.48163 eV

Components:
Nuclear Repulsion  :         21.21218872274415 Eh             577.21300 eV
Electronic Energy  :       -520.90760048402512 Eh          -14174.61643 eV
One Electron Energy:       -724.86387925727001 Eh          -19724.54893 eV
Two Electron Energy:        203.95627877324492 Eh            5549.93250 eV

Virial components:
Potential Energy   :       -998.39393466595607 Eh          -27167.68014 eV
Kinetic Energy     :        498.80589724770073 Eh           13573.19851 eV
Virial Ratio       :          2.00156802510730

DFT components:
N(Alpha)           :       12.999865364300 electrons
N(Beta)            :       11.999885539939 electrons
N(Total)           :       24.999750904239 electrons
NL Energy, E(C,NL) :        0.107373113780 Eh       
E(XC)              :      -25.923737195477 Eh       

---------------
SCF CONVERGENCE
---------------

  Last Energy change         ...    2.8965e-07  Tolerance :   1.0000e-06
  Last MAX-Density change    ...    2.3590e-05  Tolerance :   1.0000e-05
  Last RMS-Density change    ...    7.6867e-07  Tolerance :   1.0000e-06
  Last DIIS Error            ...    1.1323e-03  Tolerance :   1.0000e-06
  Last Orbital Gradient      ...    1.0114e-05  Tolerance :   5.0000e-05
  Last Orbital Rotation      ...    6.1595e-05  Tolerance :   5.0000e-05


----------------------
UHF SPIN CONTAMINATION
----------------------

Warning: in a DFT calculation there is little theoretical justification to 
         calculate <S**2> as in Hartree-Fock theory. We will do it anyways
         but you should keep in mind that the values have only limited relevance

Expectation value of <S**2>     :     0.752226
Ideal value S*(S+1) for S=0.5   :     0.750000
Deviation                       :     0.002226

----------------
ORBITAL ENERGIES
----------------
                 SPIN UP ORBITALS
  NO   OCC          E(Eh)            E(eV) 
   0   1.0000    -102.004567     -2775.6854 
   1   1.0000     -10.801008      -293.9104 
   2   1.0000      -9.772903      -265.9342 
   3   1.0000      -7.489323      -203.7948 
   4   1.0000      -7.467347      -203.1969 
   5   1.0000      -7.467287      -203.1952 
   6   1.0000      -1.167363       -31.7656 
   7   1.0000      -1.043473       -28.3944 
   8   1.0000      -0.893383       -24.3102 
   9   1.0000      -0.893374       -24.3099 
  10   1.0000      -0.579658       -15.7733 
  11   1.0000      -0.536400       -14.5962 
  12   1.0000      -0.535505       -14.5718 
  13   0.0000      -0.385998       -10.5035 
  14   0.0000      -0.157652        -4.2899 
  15   0.0000      -0.081112        -2.2072 
  16   0.0000      -0.081069        -2.2060 
  17   0.0000      -0.056447        -1.5360 
  18   0.0000      -0.051465        -1.4004 
  19   0.0000      -0.051444        -1.3999 
  20   0.0000      -0.027951        -0.7606 
  21   0.0000      -0.009568        -0.2603 
  22   0.0000      -0.006877        -0.1871 
  23   0.0000       0.002551         0.0694 

                 SPIN DOWN ORBITALS
  NO   OCC          E(Eh)            E(eV) 
   0   1.0000    -101.996799     -2775.4740 
   1   1.0000     -10.801008      -293.9104 
   2   1.0000      -9.766700      -265.7654 
   3   1.0000      -7.465228      -203.1392 
   4   1.0000      -7.462609      -203.0679 
   5   1.0000      -7.462552      -203.0664 
   6   1.0000      -1.167363       -31.7656 
   7   1.0000      -0.992012       -26.9940 
   8   1.0000      -0.893383       -24.3102 
   9   1.0000      -0.893374       -24.3099 
  10   1.0000      -0.518415       -14.1068 
  11   1.0000      -0.517516       -14.0823 
  12   0.0000      -0.385998       -10.5035 
  13   0.0000      -0.228200        -6.2096 
  14   0.0000      -0.157634        -4.2894 
  15   0.0000      -0.081109        -2.2071 
  16   0.0000      -0.081067        -2.2060 
  17   0.0000      -0.056211        -1.5296 
  18   0.0000      -0.051458        -1.4002 
  19   0.0000      -0.051441        -1.3998 
  20   0.0000      -0.027806        -0.7567 
  21   0.0000      -0.007744        -0.2107 
  22   0.0000      -0.006427        -0.1749 
*Only the first 10 virtual orbitals were printed.

                    ********************************
                    * MULLIKEN POPULATION ANALYSIS *
                    ********************************

--------------------------------------------
MULLIKEN ATOMIC CHARGES AND SPIN POPULATIONS
--------------------------------------------
   0 C :    0.052057   -0.000002
   1 Cl:    0.000017    1.000002
   2 H :    0.315997   -0.000000
   3 H :    0.315937   -0.000000
   4 H :    0.315992    0.000000
Sum of atomic charges         :    1.0000000
Sum of atomic spin populations:    1.0000000

-----------------------------------------------------
MULLIKEN REDUCED ORBITAL CHARGES AND SPIN POPULATIONS
-----------------------------------------------------
CHARGE
  0 C s       :     3.414921  s :     3.414921
      pz      :     1.251235  p :     2.502704
      px      :     0.000052
      py      :     1.251417
      dz2     :     0.010079  d :     0.028324
      dxz     :     0.000001
      dyz     :     0.011976
      dx2y2   :     0.006268
      dxy     :     0.000001
      f0      :     0.001011  f :     0.001994
      f+1     :     0.000000
      f-1     :     0.000209
      f+2     :     0.000653
      f-2     :     0.000000
      f+3     :     0.000000
      f-3     :     0.000121

  1 Cls       :     5.999220  s :     5.999220
      pz      :     3.701977  p :    10.999085
      px      :     3.999482
      py      :     3.297626
      dz2     :     0.000040  d :     0.001231
      dxz     :     0.000071
      dyz     :     0.000609
      dx2y2   :     0.000461
      dxy     :     0.000050
      f0      :     0.000041  f :     0.000448
      f+1     :     0.000002
      f-1     :     0.000116
      f+2     :     0.000106
      f-2     :     0.000068
      f+3     :     0.000057
      f-3     :     0.000057

  2 H s       :     0.655987  s :     0.655987
      pz      :     0.021657  p :     0.028015
      px      :    -0.000002
      py      :     0.006359

  3 H s       :     0.656025  s :     0.656025
      pz      :     0.011792  p :     0.028038
      px      :    -0.000001
      py      :     0.016247

  4 H s       :     0.655944  s :     0.655944
      pz      :     0.008621  p :     0.028064
      px      :    -0.000002
      py      :     0.019444


SPIN
  0 C s       :    -0.000005  s :    -0.000005
      pz      :     0.000003  p :     0.000004
      px      :    -0.000003
      py      :     0.000003
      dz2     :     0.000000  d :     0.000000
      dxz     :     0.000000
      dyz     :     0.000000
      dx2y2   :    -0.000000
      dxy     :     0.000000
      f0      :     0.000000  f :     0.000000
      f+1     :    -0.000000
      f-1     :     0.000000
      f+2     :     0.000000
      f-2     :     0.000000
      f+3     :    -0.000000
      f-3     :     0.000000

  1 Cls       :    -0.000705  s :    -0.000705
      pz      :     0.297652  p :     0.999555
      px      :    -0.000056
      py      :     0.701958
      dz2     :     0.000001  d :     0.000717
      dxz     :     0.000008
      dyz     :     0.000447
      dx2y2   :     0.000237
      dxy     :     0.000023
      f0      :     0.000041  f :     0.000436
      f+1     :     0.000002
      f-1     :     0.000111
      f+2     :     0.000106
      f-2     :     0.000065
      f+3     :     0.000055
      f-3     :     0.000057

  2 H s       :    -0.000002  s :    -0.000002
      pz      :     0.000001  p :     0.000002
      px      :     0.000000
      py      :     0.000001

  3 H s       :    -0.000002  s :    -0.000002
      pz      :     0.000001  p :     0.000002
      px      :     0.000000
      py      :     0.000001

  4 H s       :    -0.000001  s :    -0.000001
      pz      :     0.000001  p :     0.000002
      px      :     0.000000
      py      :     0.000001



                     *******************************
                     * LOEWDIN POPULATION ANALYSIS *
                     *******************************

-------------------------------------------
LOEWDIN ATOMIC CHARGES AND SPIN POPULATIONS
-------------------------------------------
   0 C :    0.685032   -0.000001
   1 Cl:    0.000008    1.000001
   2 H :    0.104980    0.000000
   3 H :    0.104997    0.000000
   4 H :    0.104982    0.000000

----------------------------------------------------
LOEWDIN REDUCED ORBITAL CHARGES AND SPIN POPULATIONS
----------------------------------------------------
CHARGE
  0 C s       :     2.958270  s :     2.958270
      pz      :     1.132667  p :     2.265411
      px      :     0.000042
      py      :     1.132702
      dz2     :     0.030469  d :     0.084432
      dxz     :     0.000002
      dyz     :     0.037448
      dx2y2   :     0.016511
      dxy     :     0.000002
      f0      :     0.002464  f :     0.006855
      f+1     :     0.000000
      f-1     :     0.000485
      f+2     :     0.002197
      f-2     :     0.000000
      f+3     :     0.000000
      f-3     :     0.001708

  1 Cls       :     5.999220  s :     5.999220
      pz      :     3.701977  p :    10.999093
      px      :     3.999490
      py      :     3.297626
      dz2     :     0.000040  d :     0.001232
      dxz     :     0.000071
      dyz     :     0.000609
      dx2y2   :     0.000462
      dxy     :     0.000050
      f0      :     0.000041  f :     0.000448
      f+1     :     0.000002
      f-1     :     0.000116
      f+2     :     0.000106
      f-2     :     0.000068
      f+3     :     0.000057
      f-3     :     0.000057

  2 H s       :     0.705152  s :     0.705152
      pz      :     0.134421  p :     0.189868
      px      :     0.000005
      py      :     0.055442

  3 H s       :     0.705138  s :     0.705138
      pz      :     0.083475  p :     0.189865
      px      :     0.000004
      py      :     0.106386

  4 H s       :     0.705156  s :     0.705156
      pz      :     0.066896  p :     0.189863
      px      :     0.000002
      py      :     0.122964


SPIN
  0 C s       :     0.000000  s :     0.000000
      pz      :     0.000000  p :    -0.000001
      px      :    -0.000001
      py      :     0.000000
      dz2     :     0.000000  d :     0.000000
      dxz     :     0.000000
      dyz     :     0.000000
      dx2y2   :     0.000000
      dxy     :     0.000000
      f0      :     0.000000  f :     0.000000
      f+1     :    -0.000000
      f-1     :     0.000000
      f+2     :     0.000000
      f-2     :     0.000000
      f+3     :    -0.000000
      f-3     :     0.000000

  1 Cls       :    -0.000705  s :    -0.000705
      pz      :     0.297652  p :     0.999554
      px      :    -0.000057
      py      :     0.701958
      dz2     :     0.000001  d :     0.000717
      dxz     :     0.000008
      dyz     :     0.000447
      dx2y2   :     0.000237
      dxy     :     0.000023
      f0      :     0.000041  f :     0.000436
      f+1     :     0.000002
      f-1     :     0.000111
      f+2     :     0.000106
      f-2     :     0.000065
      f+3     :     0.000055
      f-3     :     0.000057

  2 H s       :    -0.000000  s :    -0.000000
      pz      :     0.000000  p :     0.000000
      px      :     0.000000
      py      :     0.000000

  3 H s       :    -0.000000  s :    -0.000000
      pz      :     0.000000  p :     0.000000
      px      :     0.000000
      py      :     0.000000

  4 H s       :    -0.000000  s :    -0.000000
      pz      :     0.000000  p :     0.000000
      px      :     0.000000
      py      :     0.000000



                      *****************************
                      * MAYER POPULATION ANALYSIS *
                      *****************************

  NA   - Mulliken gross atomic population
  ZA   - Total nuclear charge
  QA   - Mulliken gross atomic charge
  VA   - Mayer's total valence
  BVA  - Mayer's bonded valence
  FA   - Mayer's free valence

  ATOM       NA         ZA         QA         VA         BVA        FA
  0 C      5.9479     6.0000     0.0521     2.6796     2.6796     0.0000
  1 Cl    17.0000    17.0000     0.0000     1.0045     0.0000     1.0045
  2 H      0.6840     1.0000     0.3160     0.9324     0.9324     0.0000
  3 H      0.6841     1.0000     0.3159     0.9324     0.9324     0.0000
  4 H      0.6840     1.0000     0.3160     0.9323     0.9323     0.0000

  Mayer bond orders larger than 0.100000
B(  0-C ,  2-H ) :   0.8932 B(  0-C ,  3-H ) :   0.8933 B(  0-C ,  4-H ) :   0.8932 


-------
TIMINGS
-------

Total SCF time: 0 days 0 hours 6 min 27 sec 

Total time                  ....     387.024 sec
Sum of individual times     ....     363.892 sec  ( 94.0%)

SCF preparation             ....       3.490 sec  (  0.9%)
Fock matrix formation       ....     184.890 sec  ( 47.8%)
  Startup                   ....      48.579 sec  ( 26.3% of F)
  Split-RI-J                ....      44.544 sec  ( 24.1% of F)
  Chain of spheres X        ....      49.373 sec  ( 26.7% of F)
  XC integration            ....       2.460 sec  (  1.3% of F)
    Basis function eval.    ....       0.142 sec  (  5.8% of XC)
    Density eval.           ....       0.401 sec  ( 16.3% of XC)
    XC-Functional eval.     ....       0.233 sec  (  9.5% of XC)
    XC-Potential eval.      ....       0.435 sec  ( 17.7% of XC)
Diagonalization             ....       0.000 sec  (  0.0%)
Density matrix formation    ....      66.250 sec  ( 17.1%)
Total Energy calculation    ....      27.587 sec  (  7.1%)
Population analysis         ....      12.820 sec  (  3.3%)
Orbital Transformation      ....      11.041 sec  (  2.9%)
Orbital Orthonormalization  ....       0.000 sec  (  0.0%)
DIIS solution               ....      34.943 sec  (  9.0%)
SOSCF solution              ....      22.817 sec  (  5.9%)
Grid generation             ....       0.054 sec  (  0.0%)
Finished LeanSCF after 395.2 sec

Maximum memory used throughout the entire LEANSCF-calculation: 9.6 MB

-------------------------   --------------------
FINAL SINGLE POINT ENERGY      -499.588037418255
-------------------------   --------------------



           ************************************************************
           *        Program running with 2 parallel MPI-processes     *
           *              working on a common directory               *
           ************************************************************

------------------------------------------------------------------------------
                              ORCA PROPERTY CALCULATIONS
------------------------------------------------------------------------------

GBWName                                 ... orca.gbw
Number of atoms                         ...      5
Number of basis functions               ...    110
Max core memory                         ...   1024 MB

Electric properties:
Dipole moment                           ... YES
Quadrupole moment                       ...  NO
Static polarizability (Dipole/Dipole)   ...  NO
Static polarizability (Dipole/Quad.)    ...  NO
Static polarizability (Quad./Quad.)     ...  NO
Static polarizability (Velocity)        ...  NO

Atomic electric properties:
Dipole moment                           ...  NO
Quadrupole moment                       ...  NO
Static polarizability                   ...  NO

Choice of electric origin               ... Center of mass
Position of electric origin             ...     9.267439    -0.000323    -0.000190

General magnetic properties:
Magnetizability                         ...  NO

EPR properties:
g-Tensor (aka g-matrix)                 ...  NO
Zero-Field splitting spin-orbit         ...  NO
Zero-field splitting spin-spin          ...  NO
Hyperfine couplings                     ...  NO (   0 nuclei)
Quadrupole couplings                    ...  NO (   0 nuclei)
Contact density                         ...  NO (   0 nuclei)

NMR properties:
Chemical shifts                         ...  NO (   0 nuclei)
Spin-rotation constants                 ...  NO (   0 nuclei)
Spin-spin couplings                     ...  NO (   0 nuclei,    0 pairs)

Choice of magnetic origin               ... GIAO
Position of magnetic origin             ...     0.000000     0.000000     0.000000

Properties with geometric perturbations:
SCF Hessian                             ...  NO
IR spectrum                             ...  NO
VCD spectrum                            ...  NO
X-ray spectroscopy properties:
SCF XES/XAS/RIXS spectra                ...  NO


-------------
DIPOLE MOMENT
-------------

Method             : SCF
Type of density    : Electron Density
Multiplicity       :   2
Irrep              :   0
Energy             :  -499.5880374182552828 Eh
Relativity type    : 
Basis              : AO
                                X                 Y                 Z
Electronic contribution:      7.435264265      -0.000433061      -0.000056671
Nuclear contribution   :    -16.631056223       0.000883476       0.000251950
                        -----------------------------------------
Total Dipole Moment    :     -9.195791958       0.000450415       0.000195279
                        -----------------------------------------
Magnitude (a.u.)       :      9.195791971
Magnitude (Debye)      :     23.373845642



--------------------
Rotational spectrum 
--------------------
 
Rotational constants in cm-1:             4.801377             0.032477             0.032477 
Rotational constants in MHz :        143941.673722           973.634151           973.634038 

Dipole components along the rotational axes: 
x,y,z [a.u.] :    -9.195792    -0.000087    -0.000140 
x,y,z [Debye]:   -23.373846    -0.000220    -0.000357 

 

Dipole moment calculation done in   2.6 sec 

Maximum memory used throughout the entire PROP-calculation: 5.2 MB

         *************************************************************
                               MULTIPLE XYZ STEP   2
         *************************************************************
---------------------------------
CARTESIAN COORDINATES (ANGSTROEM)
---------------------------------
  C      0.009847    0.000108   -0.000013
  Cl     6.908284   -0.000317   -0.000202
  H      0.014151    0.127898   -1.069947
  H      0.002725    0.862784    0.645631
  H      0.009853   -0.990393    0.424291

----------------------------
CARTESIAN COORDINATES (A.U.)
----------------------------
  NO LB      ZA    FRAG     MASS         X           Y           Z
   0 C     6.0000    0    12.011    0.018608    0.000204   -0.000025
   1 Cl   17.0000    0    35.453   13.054765   -0.000599   -0.000382
   2 H     1.0000    0     1.008    0.026742    0.241692   -2.021907
   3 H     1.0000    0     1.008    0.005150    1.630425    1.220066
   4 H     1.0000    0     1.008    0.018619   -1.871572    0.801794

--------------------------------
INTERNAL COORDINATES (ANGSTROEM)
--------------------------------
 C      0   0   0     0.000000000000     0.00000000     0.00000000
 Cl     1   0   0     6.898437015681     0.00000000     0.00000000
 H      1   2   0     1.077547016548    89.77000525     0.00000000
 H      1   2   3     1.077551288151    90.38246185   239.99907883
 H      1   2   3     1.077555620584    89.99705437   119.99999252

---------------------------
INTERNAL COORDINATES (A.U.)
---------------------------
 C      0   0   0     0.000000000000     0.00000000     0.00000000
 Cl     1   0   0    13.036156711742     0.00000000     0.00000000
 H      1   2   0     2.036268757700    89.77000525     0.00000000
 H      1   2   3     2.036276829860    90.38246185   239.99907883
 H      1   2   3     2.036285016972    89.99705437   119.99999252



           ************************************************************
           *        Program running with 2 parallel MPI-processes     *
           *              working on a common directory               *
           ************************************************************
------------------------------------------------------------------------------
                   ___                                                        
                  /   \      - P O W E R E D   B Y -                         
                 /     \                                                     
                 |  |  |   _    _      __       _____    __    __             
                 |  |  |  | |  | |    /  \     |  _  \  |  |  /  |          
                  \  \/   | |  | |   /    \    | | | |  |  | /  /          
                 / \  \   | |__| |  /  /\  \   | |_| |  |  |/  /          
                |  |  |   |  __  | /  /__\  \  |    /   |      \           
                |  |  |   | |  | | |   __   |  |    \   |  |\   \          
                \     /   | |  | | |  |  |  |  | |\  \  |  | \   \       
                 \___/    |_|  |_| |__|  |__|  |_| \__\ |__|  \__/        
                                                                              
                      - O R C A' S   B I G   F R I E N D -                    
                                      &                                       
                       - I N T E G R A L  F E E D E R -                       
                                                                              
 v1 FN, 2020, v2 2021, v3 2022-2024                                           
------------------------------------------------------------------------------


----------------------
SHARK INTEGRAL PACKAGE
----------------------

Number of atoms                             ...      5
Number of basis functions                   ...    110
Number of shells                            ...     44
Maximum angular momentum                    ...      3
Integral batch strategy                     ... SHARK/LIBINT Hybrid
RI-J (if used) integral strategy            ... SPLIT-RIJ (Revised 2003 algorithm where possible)
Printlevel                                  ...      1
Contraction scheme used                     ... SEGMENTED contraction
Prescreening option                         ... SCHWARTZ
   Thresh                                   ... 1.000e-10
   Tcut                                     ... 1.000e-11
   Tpresel                                  ... 1.000e-11 
Coulomb Range Separation                    ... NOT USED
Exchange Range Separation                   ... Long Range
   Mu parameter                             ... 3.000e-01
   Scaling (regular/separated)              ... 1.500e-01 8.500e-01
Multipole approximations                    ... NOT USED
Finite Nucleus Model                        ... NOT USED
CABS basis                                  ... NOT available
Auxiliary Coulomb fitting basis             ... AVAILABLE
   # of basis functions in Aux-J            ...    133
   # of shells in Aux-J                     ...     47
   Maximum angular momentum in Aux-J        ...      4
Auxiliary J/K fitting basis                 ... NOT available
Auxiliary Correlation fitting basis         ... NOT available
Auxiliary 'external' fitting basis          ... NOT available

Checking pre-screening integrals            ... done (  0.7 sec) Dimension = 44
Check shell pair data                       ... done (  0.2 sec)
Shell pair information
Shell pair cut-off parameter TPreSel        ...   1.0e-11
Total number of shell pairs                 ...       990
Shell pairs after pre-screening             ...       793
Total number of primitive shell pairs       ...      2768
Primitive shell pairs kept                  ...      1892
          la=0 lb=0:    186 shell pairs
          la=1 lb=0:    256 shell pairs
          la=1 lb=1:    101 shell pairs
          la=2 lb=0:     99 shell pairs
          la=2 lb=1:     74 shell pairs
          la=2 lb=2:     18 shell pairs
          la=3 lb=0:     28 shell pairs
          la=3 lb=1:     21 shell pairs
          la=3 lb=2:      8 shell pairs
          la=3 lb=3:      2 shell pairs

Calculating one electron integrals          ... done (  0.0 sec)
Calculating RI/J V-Matrix + Cholesky decomp.... done (  0.0 sec)
Calculating Nuclear repulsion               ... done (  0.0 sec) ENN=     21.379466472136 Eh

Diagonalization of the overlap matrix:
Smallest eigenvalue                        ... 6.587e-05
Time for diagonalization                   ...    0.001 sec
Threshold for overlap eigenvalues          ... 1.000e-07
Number of eigenvalues below threshold      ... 0
Time for construction of square roots      ...    0.012 sec
Total time needed                          ...    1.020 sec

-------------------
DFT GRID GENERATION
-------------------

General Integration Accuracy     IntAcc      ... 4.388
Radial Grid Type                 RadialGrid  ... OptM3 with GC (2021)
Angular Grid (max. ang.)         AngularGrid ... 4 (Lebedev-302)
Angular grid pruning method      GridPruning ... 4 (adaptive)
Weight generation scheme         WeightScheme... mBecke (2022)
Basis function cutoff            BFCut       ... 1.0000e-10
Integration weight cutoff        WCut        ... 1.0000e-14
Partially contracted basis set               ... off
Rotationally invariant grid construction     ... off
Angular grids for H and He will be reduced by one unit
Diffuse basis detected: some atoms will have their outermost
                        angular grid increased by 1.

Total number of grid points                  ...    24728
Total number of batches                      ...      389
Average number of points per batch           ...       63
Average number of grid points per atom       ...     4946

--------------------
COSX GRID GENERATION
--------------------

GRIDX 1
-------
General Integration Accuracy     IntAcc      ... 3.816
Radial Grid Type                 RadialGrid  ... OptM3 with GC (2021)
Angular Grid (max. ang.)         AngularGrid ... 1 (Lebedev-50)
Angular grid pruning method      GridPruning ... 4 (adaptive)
Weight generation scheme         WeightScheme... mBecke (2022)
Basis function cutoff            BFCut       ... 1.0000e-10
Integration weight cutoff        WCut        ... 1.0000e-14
Partially contracted basis set               ... on
Rotationally invariant grid construction     ... off
Angular grids for H and He will be reduced by one unit
Diffuse basis detected: some atoms will have their outermost
                        angular grid increased by 1.

Total number of grid points                  ...     4363
Total number of batches                      ...       37
Average number of points per batch           ...      117
Average number of grid points per atom       ...      873
UseSFitting                                  ... on

GRIDX 2
-------
General Integration Accuracy     IntAcc      ... 4.020
Radial Grid Type                 RadialGrid  ... OptM3 with GC (2021)
Angular Grid (max. ang.)         AngularGrid ... 2 (Lebedev-110)
Angular grid pruning method      GridPruning ... 4 (adaptive)
Weight generation scheme         WeightScheme... mBecke (2022)
Basis function cutoff            BFCut       ... 1.0000e-10
Integration weight cutoff        WCut        ... 1.0000e-14
Partially contracted basis set               ... on
Rotationally invariant grid construction     ... off
Angular grids for H and He will be reduced by one unit
Diffuse basis detected: some atoms will have their outermost
                        angular grid increased by 1.

Total number of grid points                  ...     7257
Total number of batches                      ...       60
Average number of points per batch           ...      120
Average number of grid points per atom       ...     1451
UseSFitting                                  ... on

GRIDX 3
-------
General Integration Accuracy     IntAcc      ... 4.338
Radial Grid Type                 RadialGrid  ... OptM3 with GC (2021)
Angular Grid (max. ang.)         AngularGrid ... 3 (Lebedev-194)
Angular grid pruning method      GridPruning ... 4 (adaptive)
Weight generation scheme         WeightScheme... mBecke (2022)
Basis function cutoff            BFCut       ... 1.0000e-10
Integration weight cutoff        WCut        ... 1.0000e-14
Partially contracted basis set               ... on
Rotationally invariant grid construction     ... off
Angular grids for H and He will be reduced by one unit
Diffuse basis detected: some atoms will have their outermost
                        angular grid increased by 1.

Total number of grid points                  ...    17322
Total number of batches                      ...      139
Average number of points per batch           ...      124
Average number of grid points per atom       ...     3464
UseSFitting                                  ... on
Initializing property integral containers    ... done (  1.0 sec)

SHARK setup successfully completed in   6.1 seconds

Maximum memory used throughout the entire STARTUP-calculation: 15.4 MB


           ************************************************************
           *        Program running with 2 parallel MPI-processes     *
           *              working on a common directory               *
           ************************************************************
             **** ENERGY FILE WAS UPDATED (orca.en.tmp) ****
Finished Guess after  17.0 sec
Maximum memory used throughout the entire GUESS-calculation: 8.5 MB


           ************************************************************
           *        Program running with 2 parallel MPI-processes     *
           *              working on a common directory               *
           ************************************************************
----------------------------------------D-I-I-S--------------------------------------------
Iteration    Energy (Eh)           Delta-E    RMSDP     MaxDP     DIISErr   Damp  Time(sec)
-------------------------------------------------------------------------------------------
               ***  Starting incremental Fock matrix formation  ***
                              *** Initializing SOSCF ***
---------------------------------------S-O-S-C-F--------------------------------------
Iteration    Energy (Eh)           Delta-E    RMSDP     MaxDP     MaxGrad    Time(sec)
--------------------------------------------------------------------------------------
    1    -499.6954447027129049     0.00e+00  4.26e-05  2.15e-03  5.39e-05    45.9
               *** Restarting incremental Fock matrix formation ***
    2    -499.6954452188470555    -5.16e-07  1.97e-05  1.04e-03  4.86e-05    41.8
    3    -499.6954452781682789    -5.93e-08  5.16e-06  2.65e-04  1.93e-05    41.4
                 **** Energy Check signals convergence ****

               *****************************************************
               *                     SUCCESS                       *
               *           SCF CONVERGED AFTER   3 CYCLES          *
               *****************************************************


------------------
NL GRID GENERATION
------------------

General Integration Accuracy     IntAcc      ... 4.004
Radial Grid Type                 RadialGrid  ... OptM3 with GC (2021)
Angular Grid (max. ang.)         AngularGrid ... 2 (Lebedev-110)
Angular grid pruning method      GridPruning ... 4 (adaptive)
Weight generation scheme         WeightScheme... mBecke (2022)
Basis function cutoff            BFCut       ... 1.0000e-10
Integration weight cutoff        WCut        ... 1.0000e-14
Partially contracted basis set               ... off
Rotationally invariant grid construction     ... off
Angular grids for H and He will be reduced by one unit
Diffuse basis detected: some atoms will have their outermost
                        angular grid increased by 1.

Total number of grid points                  ...     8465
Total number of batches                      ...      135
Average number of points per batch           ...       62
Average number of grid points per atom       ...     1693
Final grid set up in    0.1 sec

-------------------------------------------------------------------------------
                    post-SCF DFT-NL dispersion correction                      
-------------------------------------------------------------------------------

SCF Energy:     -499.695445278 
NL    Energy:      0.107371795 
SC+NL Energy:   -499.588073483 
NL done in  :              1.9 sec
-------------------------------------------------------------------------------
Recomputing exchange energy using gridx3       ... done (    3.014 sec)
Old exchange energy                            :     -8.409969746 Eh
New exchange energy                            :     -8.409968395 Eh
Exchange energy change after final integration :      0.000001351 Eh
Total energy after final integration           :   -499.588072132 Eh
             **** ENERGY FILE WAS UPDATED (orca.en.tmp) ****

----------------
TOTAL SCF ENERGY
----------------

Total Energy       :       -499.58807213182251 Eh          -13594.48257 eV

Components:
Nuclear Repulsion  :         21.37946647213592 Eh             581.76486 eV
Electronic Energy  :       -521.07491175030418 Eh          -14179.16920 eV
One Electron Energy:       -725.17988019325003 Eh          -19733.14775 eV
Two Electron Energy:        204.10496844294590 Eh            5553.97855 eV

Virial components:
Potential Energy   :       -998.39376860949574 Eh          -27167.67562 eV
Kinetic Energy     :        498.80569647767317 Eh           13573.19305 eV
Virial Ratio       :          2.00156849783327

DFT components:
N(Alpha)           :       12.999882225370 electrons
N(Beta)            :       11.999905177415 electrons
N(Total)           :       24.999787402784 electrons
NL Energy, E(C,NL) :        0.107371795061 Eh       
E(XC)              :      -25.923706113292 Eh       

---------------
SCF CONVERGENCE
---------------

  Last Energy change         ...    5.9321e-08  Tolerance :   1.0000e-06
  Last MAX-Density change    ...    2.6471e-04  Tolerance :   1.0000e-05
  Last RMS-Density change    ...    5.1594e-06  Tolerance :   1.0000e-06
  Last DIIS Error            ...    5.7839e-04  Tolerance :   1.0000e-06
  Last Orbital Gradient      ...    1.9270e-05  Tolerance :   5.0000e-05
  Last Orbital Rotation      ...    1.2158e-04  Tolerance :   5.0000e-05


----------------------
UHF SPIN CONTAMINATION
----------------------

Warning: in a DFT calculation there is little theoretical justification to 
         calculate <S**2> as in Hartree-Fock theory. We will do it anyways
         but you should keep in mind that the values have only limited relevance

Expectation value of <S**2>     :     0.752226
Ideal value S*(S+1) for S=0.5   :     0.750000
Deviation                       :     0.002226

Total SCF time: 0 days 0 hours 2 min 38 sec 
Finished LeanSCF after 166.1 sec

Maximum memory used throughout the entire LEANSCF-calculation: 9.8 MB

-------------------------   --------------------
FINAL SINGLE POINT ENERGY      -499.588072131823
-------------------------   --------------------



           ************************************************************
           *        Program running with 2 parallel MPI-processes     *
           *              working on a common directory               *
           ************************************************************

------------------------------------------------------------------------------
                              ORCA PROPERTY CALCULATIONS
------------------------------------------------------------------------------

GBWName                                 ... orca.gbw
Number of atoms                         ...      5
Number of basis functions               ...    110
Max core memory                         ...   1024 MB

Electric properties:
Dipole moment                           ... YES
Quadrupole moment                       ...  NO
Static polarizability (Dipole/Dipole)   ...  NO
Static polarizability (Dipole/Quad.)    ...  NO
Static polarizability (Quad./Quad.)     ...  NO
Static polarizability (Velocity)        ...  NO

Atomic electric properties:
Dipole moment                           ...  NO
Quadrupole moment                       ...  NO
Static polarizability                   ...  NO

Choice of electric origin               ... Center of mass
Position of electric origin             ...     9.172576    -0.000361    -0.000275

General magnetic properties:
Magnetizability                         ...  NO

EPR properties:
g-Tensor (aka g-matrix)                 ...  NO
Zero-Field splitting spin-orbit         ...  NO
Zero-field splitting spin-spin          ...  NO
Hyperfine couplings                     ...  NO (   0 nuclei)
Quadrupole couplings                    ...  NO (   0 nuclei)
Contact density                         ...  NO (   0 nuclei)

NMR properties:
Chemical shifts                         ...  NO (   0 nuclei)
Spin-rotation constants                 ...  NO (   0 nuclei)
Spin-spin couplings                     ...  NO (   0 nuclei,    0 pairs)

Choice of magnetic origin               ... GIAO
Position of magnetic origin             ...     0.000000     0.000000     0.000000

Properties with geometric perturbations:
SCF Hessian                             ...  NO
IR spectrum                             ...  NO
VCD spectrum                            ...  NO
X-ray spectroscopy properties:
SCF XES/XAS/RIXS spectra                ...  NO


-------------
DIPOLE MOMENT
-------------

Method             : SCF
Type of density    : Electron Density
Multiplicity       :   2
Irrep              :   0
Energy             :  -499.5880721318225142 Eh
Relativity type    : 
Basis              : AO
                                X                 Y                 Z
Electronic contribution:      7.334932156      -0.000472024      -0.000139173
Nuclear contribution   :    -16.393802888       0.000978027       0.000461802
                        -----------------------------------------
Total Dipole Moment    :     -9.058870732       0.000506003       0.000322630
                        -----------------------------------------
Magnitude (a.u.)       :      9.058870752
Magnitude (Debye)      :     23.025819561



--------------------
Rotational spectrum 
--------------------
 
Rotational constants in cm-1:             4.801180             0.033434             0.033434 
Rotational constants in MHz :        143935.762543          1002.326869          1002.326783 

Dipole components along the rotational axes: 
x,y,z [a.u.] :     9.058871    -0.000005     0.000180 
x,y,z [Debye]:    23.025820    -0.000013     0.000458 

 

Dipole moment calculation done in   2.6 sec 

Maximum memory used throughout the entire PROP-calculation: 5.3 MB

         *************************************************************
                               MULTIPLE XYZ STEP   3
         *************************************************************
---------------------------------
CARTESIAN COORDINATES (ANGSTROEM)
---------------------------------
  C      0.030218    0.000116    0.000007
  Cl     6.827093   -0.000349   -0.000281
  H      0.034747    0.127908   -1.069927
  H      0.022669    0.862792    0.645649
  H      0.030133   -0.990387    0.424312

----------------------------
CARTESIAN COORDINATES (A.U.)
----------------------------
  NO LB      ZA    FRAG     MASS         X           Y           Z
   0 C     6.0000    0    12.011    0.057104    0.000219    0.000013
   1 Cl   17.0000    0    35.453   12.901336   -0.000660   -0.000531
   2 H     1.0000    0     1.008    0.065662    0.241711   -2.021869
   3 H     1.0000    0     1.008    0.042838    1.630441    1.220100
   4 H     1.0000    0     1.008    0.056943   -1.871560    0.801833

--------------------------------
INTERNAL COORDINATES (ANGSTROEM)
--------------------------------
 C      0   0   0     0.000000000000     0.00000000     0.00000000
 Cl     1   0   0     6.796875022008     0.00000000     0.00000000
 H      1   2   0     1.077548175935    89.75723592     0.00000000
 H      1   2   3     1.077552996628    90.40599256   239.99927528
 H      1   2   3     1.077557856108    90.00187244   120.00010768

---------------------------
INTERNAL COORDINATES (A.U.)
---------------------------
 C      0   0   0     0.000000000000     0.00000000     0.00000000
 Cl     1   0   0    12.844232358085     0.00000000     0.00000000
 H      1   2   0     2.036270948624    89.75723592     0.00000000
 H      1   2   3     2.036280058412    90.40599256   239.99927528
 H      1   2   3     2.036289241499    90.00187244   120.00010768



           ************************************************************
           *        Program running with 2 parallel MPI-processes     *
           *              working on a common directory               *
           ************************************************************
------------------------------------------------------------------------------
                   ___                                                        
                  /   \      - P O W E R E D   B Y -                         
                 /     \                                                     
                 |  |  |   _    _      __       _____    __    __             
                 |  |  |  | |  | |    /  \     |  _  \  |  |  /  |          
                  \  \/   | |  | |   /    \    | | | |  |  | /  /          
[...]
Initializing property integral containers    ... done (  1.6 sec)

SHARK setup successfully completed in  10.3 seconds

Maximum memory used throughout the entire STARTUP-calculation: 15.4 MB


           ************************************************************
           *        Program running with 2 parallel MPI-processes     *
           *              working on a common directory               *
           ************************************************************
             **** ENERGY FILE WAS UPDATED (orca.en.tmp) ****
Finished Guess after  19.1 sec
Maximum memory used throughout the entire GUESS-calculation: 8.9 MB


           ************************************************************
           *        Program running with 2 parallel MPI-processes     *
           *              working on a common directory               *
           ************************************************************
----------------------------------------D-I-I-S--------------------------------------------
Iteration    Energy (Eh)           Delta-E    RMSDP     MaxDP     DIISErr   Damp  Time(sec)
-------------------------------------------------------------------------------------------
               ***  Starting incremental Fock matrix formation  ***
    1    -489.9638148779609992     0.00e+00  1.91e-02  4.80e-01  5.42e-01  0.700  38.3
    2    -490.6488361383350139    -6.85e-01  1.29e-02  3.07e-01  3.78e-01  0.700  48.4
    3    -491.1545143744201596    -5.06e-01  7.97e-03  1.78e-01  2.64e-01  0.700  44.9
                               ***Turning on AO-DIIS***
    4    -491.5301933485408199    -3.76e-01  4.26e-03  5.97e-02  1.87e-01  0.700  40.2
    5    -491.8093726868900148    -2.79e-01  3.57e-03  6.45e-02  1.31e-01  0.700  41.1
    6    -492.0168202784299183    -2.07e-01  2.88e-03  5.67e-02  9.21e-02  0.700  56.1
    7    -492.1694186183664215    -1.53e-01  7.22e-03  1.38e-01  6.46e-02  0.000  35.8
    8    -492.5570331435656044    -3.88e-01  1.33e-03  2.47e-02  8.88e-03  0.000  39.7
    9    -492.5606763414168654    -3.64e-03  9.23e-04  1.35e-02  6.36e-03  0.000  56.9
   10    -492.5629714910876373    -2.30e-03  7.10e-04  1.04e-02  4.42e-03  0.000  36.1
                              *** Initializing SOSCF ***
---------------------------------------S-O-S-C-F--------------------------------------
Iteration    Energy (Eh)           Delta-E    RMSDP     MaxDP     MaxGrad    Time(sec)
--------------------------------------------------------------------------------------
   11    -492.5640957976129357    -1.12e-03  4.35e-04  6.70e-03  2.72e-03    44.1
               *** Restarting incremental Fock matrix formation ***
   12    -492.5645826592265166    -4.87e-04  2.42e-04  3.21e-03  3.61e-03    41.8
   13    -492.5647786101880001    -1.96e-04  4.46e-04  6.13e-03  2.36e-03    40.6
   14    -492.5649199521319588    -1.41e-04  9.85e-05  2.48e-03  6.54e-04    42.6
   15    -492.5649271819214619    -7.23e-06  4.39e-05  8.13e-04  3.80e-04    35.1
   16    -492.5649294529046074    -2.27e-06  1.41e-05  2.06e-04  1.12e-04    34.3
   17    -492.5649297134460767    -2.61e-07  4.97e-06  1.09e-04  2.90e-05    31.1
                 **** Energy Check signals convergence ****

               *****************************************************
               *                     SUCCESS                       *
               *           SCF CONVERGED AFTER  17 CYCLES          *
               *****************************************************


------------------
NL GRID GENERATION
------------------

General Integration Accuracy     IntAcc      ... 4.004
Radial Grid Type                 RadialGrid  ... OptM3 with GC (2021)
Angular Grid (max. ang.)         AngularGrid ... 2 (Lebedev-110)
Angular grid pruning method      GridPruning ... 4 (adaptive)
Weight generation scheme         WeightScheme... mBecke (2022)
Basis function cutoff            BFCut       ... 1.0000e-10
Integration weight cutoff        WCut        ... 1.0000e-14
Partially contracted basis set               ... off
Rotationally invariant grid construction     ... off
Angular grids for H and He will be reduced by one unit
Diffuse basis detected: some atoms will have their outermost
                        angular grid increased by 1.

Total number of grid points                  ...     8473
Total number of batches                      ...      135
Average number of points per batch           ...       62
Average number of grid points per atom       ...     1695
Final grid set up in    0.0 sec

-------------------------------------------------------------------------------
                    post-SCF DFT-NL dispersion correction                      
-------------------------------------------------------------------------------

SCF Energy:     -492.564929713 
NL    Energy:      0.105910107 
SC+NL Energy:   -492.459019606 
NL done in  :              1.1 sec
-------------------------------------------------------------------------------
Recomputing exchange energy using gridx3       ... done (    3.744 sec)
Old exchange energy                            :     -8.619635512 Eh
New exchange energy                            :     -8.619579934 Eh
Exchange energy change after final integration :      0.000055578 Eh
Total energy after final integration           :   -492.458964028 Eh
             **** ENERGY FILE WAS UPDATED (orca.en.tmp) ****

----------------
TOTAL SCF ENERGY
----------------

Total Energy       :       -492.45896402810484 Eh          -13400.48968 eV

Components:
Nuclear Repulsion  :        103.48779945179068 Eh            2816.04619 eV
Electronic Energy  :       -596.05272916523677 Eh          -16219.41934 eV
One Electron Energy:       -861.28587270880382 Eh          -23436.78010 eV
Two Electron Energy:        265.23314354356711 Eh            7217.36076 eV

Virial components:
Potential Energy   :      -1002.77060546183861 Eh          -27286.77541 eV
Kinetic Energy     :        510.31164143373383 Eh           13886.28573 eV
Virial Ratio       :          1.96501612748737

DFT components:
N(Alpha)           :       12.999998018650 electrons
N(Beta)            :       12.000017884489 electrons
N(Total)           :       25.000015903139 electrons
NL Energy, E(C,NL) :        0.105910106998 Eh       
E(XC)              :      -26.964210252911 Eh       

---------------
SCF CONVERGENCE
---------------

  Last Energy change         ...    2.6054e-07  Tolerance :   1.0000e-06
  Last MAX-Density change    ...    1.0890e-04  Tolerance :   1.0000e-05
  Last RMS-Density change    ...    4.9669e-06  Tolerance :   1.0000e-06
  Last DIIS Error            ...    2.7250e-03  Tolerance :   1.0000e-06
  Last Orbital Gradient      ...    2.8973e-05  Tolerance :   5.0000e-05
  Last Orbital Rotation      ...    9.1763e-05  Tolerance :   5.0000e-05


----------------------
UHF SPIN CONTAMINATION
----------------------

Warning: in a DFT calculation there is little theoretical justification to 
         calculate <S**2> as in Hartree-Fock theory. We will do it anyways
         but you should keep in mind that the values have only limited relevance

Expectation value of <S**2>     :     1.751522
Ideal value S*(S+1) for S=0.5   :     0.750000
Deviation                       :     1.001522

Total SCF time: 0 days 0 hours 12 min 10 sec 
Finished LeanSCF after 736.9 sec

Maximum memory used throughout the entire LEANSCF-calculation: 20.2 MB

-------------------------   --------------------
FINAL SINGLE POINT ENERGY      -492.458964028105
-------------------------   --------------------



           ************************************************************
           *        Program running with 2 parallel MPI-processes     *
           *              working on a common directory               *
           ************************************************************

------------------------------------------------------------------------------
                              ORCA PROPERTY CALCULATIONS
------------------------------------------------------------------------------

GBWName                                 ... orca.gbw
Number of atoms                         ...      5
Number of basis functions               ...    110
Max core memory                         ...   1024 MB

Electric properties:
Dipole moment                           ... YES
Quadrupole moment                       ...  NO
Static polarizability (Dipole/Dipole)   ...  NO
Static polarizability (Dipole/Quad.)    ...  NO
Static polarizability (Quad./Quad.)     ...  NO
Static polarizability (Velocity)        ...  NO

Atomic electric properties:
Dipole moment                           ...  NO
Quadrupole moment                       ...  NO
Static polarizability                   ...  NO

Choice of electric origin               ... Center of mass
Position of electric origin             ...     5.379802     0.177124     0.017548

General magnetic properties:
Magnetizability                         ...  NO

EPR properties:
g-Tensor (aka g-matrix)                 ...  NO
Zero-Field splitting spin-orbit         ...  NO
Zero-field splitting spin-spin          ...  NO
Hyperfine couplings                     ...  NO (   0 nuclei)
Quadrupole couplings                    ...  NO (   0 nuclei)
Contact density                         ...  NO (   0 nuclei)

NMR properties:
Chemical shifts                         ...  NO (   0 nuclei)
Spin-rotation constants                 ...  NO (   0 nuclei)
Spin-spin couplings                     ...  NO (   0 nuclei,    0 pairs)

Choice of magnetic origin               ... GIAO
Position of magnetic origin             ...     0.000000     0.000000     0.000000

Properties with geometric perturbations:
SCF Hessian                             ...  NO
IR spectrum                             ...  NO
VCD spectrum                            ...  NO
X-ray spectroscopy properties:
SCF XES/XAS/RIXS spectra                ...  NO


-------------
DIPOLE MOMENT
-------------

Method             : SCF
Type of density    : Electron Density
Multiplicity       :   2
Irrep              :   0
Energy             :  -492.4589640281048446 Eh
Relativity type    : 
Basis              : AO
                                X                 Y                 Z
Electronic contribution:      7.212770971       0.218951726      -0.085805149
Nuclear contribution   :     -7.298172676      -0.405789981      -0.017146373
                        -----------------------------------------
Total Dipole Moment    :     -0.085401705      -0.186838254      -0.102951523
                        -----------------------------------------
Magnitude (a.u.)       :      0.229784683
Magnitude (Debye)      :      0.584066247



--------------------
Rotational spectrum 
--------------------
 
Rotational constants in cm-1:             1.125793             0.582080             0.471710 
Rotational constants in MHz :         33750.435059         17450.320338         14141.511275 

Dipole components along the rotational axes: 
x,y,z [a.u.] :    -0.078162    -0.007328    -0.215958 
x,y,z [Debye]:    -0.198673    -0.018627    -0.548922 

 

Dipole moment calculation done in   2.6 sec 

Maximum memory used throughout the entire PROP-calculation: 13.1 MB
                              **** MULTIPLE XYZ DONE ***

                         SUMMARY OF THE CALCULATED SURFACE

-------------------------
MULTIPLE XYZ SCAN RESULTS
-------------------------

The Calculated Surface using the 'Actual Energy'
   1.00000000 -499.58803742
   2.00000000 -499.58807213
   3.00000000 -499.58810855
   4.00000000 -499.58814762
   5.00000000 -499.58818968
   6.00000000 -499.58823510
   7.00000000 -499.58828461
   8.00000000 -499.58833890
   9.00000000 -499.58839889
  10.00000000 -499.58846534
  11.00000000 -499.58853906
  12.00000000 -499.58862004
  13.00000000 -499.58870829
  14.00000000 -499.58880259
  15.00000000 -499.58890216
  16.00000000 -499.58900641
  17.00000000 -499.58911672
  18.00000000 -499.58923608
  19.00000000 -499.58936836
  20.00000000 -499.58952076
  21.00000000 -499.58970263
  22.00000000 -499.58991643
  23.00000000 -499.59016502
  24.00000000 -499.59045212
  25.00000000 -499.59077764
  26.00000000 -499.59114597
  27.00000000 -499.59156990
  28.00000000 -499.59205449
  29.00000000 -499.59262062
  30.00000000 -499.59328040
  31.00000000 -499.59405905
  32.00000000 -499.59498128
  33.00000000 -499.59606378
  34.00000000 -499.59732546
  35.00000000 -499.59879484
  36.00000000 -499.60050179
  37.00000000 -499.60247806
  38.00000000 -499.60475474
  39.00000000 -499.60734923
  40.00000000 -499.61027776
  41.00000000 -499.61356793
  42.00000000 -499.61723011
  43.00000000 -499.62124888
  44.00000000 -499.62561333
  45.00000000 -499.63039071
  46.00000000 -499.63553763
  47.00000000 -499.64101754
  48.00000000 -499.64678891
  49.00000000 -499.65276803
  50.00000000 -499.65876819
  51.00000000 -499.66441362
  52.00000000 -499.66877811
  53.00000000 -499.66987645
  54.00000000 -499.66387541
  55.00000000 -499.64428107
  56.00000000 -499.60073142
  57.00000000 -499.51691701
  58.00000000 -499.36686742
  59.00000000 -499.10871652
  60.00000000 -498.67471404
  61.00000000 -497.95618184
  62.00000000 -496.78913581
  63.00000000 -494.97908129
  64.00000000 -492.45896403

The Calculated Surface using the SCF energy
   1.00000000 -499.58803742
   2.00000000 -499.58807213
   3.00000000 -499.58810855
   4.00000000 -499.58814762
   5.00000000 -499.58818968
   6.00000000 -499.58823510
   7.00000000 -499.58828461
   8.00000000 -499.58833890
   9.00000000 -499.58839889
  10.00000000 -499.58846534
  11.00000000 -499.58853906
  12.00000000 -499.58862004
  13.00000000 -499.58870829
  14.00000000 -499.58880259
  15.00000000 -499.58890216
  16.00000000 -499.58900641
  17.00000000 -499.58911672
  18.00000000 -499.58923608
  19.00000000 -499.58936836
  20.00000000 -499.58952076
  21.00000000 -499.58970263
  22.00000000 -499.58991643
  23.00000000 -499.59016502
  24.00000000 -499.59045212
  25.00000000 -499.59077764
  26.00000000 -499.59114597
  27.00000000 -499.59156990
  28.00000000 -499.59205449
  29.00000000 -499.59262062
  30.00000000 -499.59328040
  31.00000000 -499.59405905
  32.00000000 -499.59498128
  33.00000000 -499.59606378
  34.00000000 -499.59732546
  35.00000000 -499.59879484
  36.00000000 -499.60050179
  37.00000000 -499.60247806
  38.00000000 -499.60475474
  39.00000000 -499.60734923
  40.00000000 -499.61027776
  41.00000000 -499.61356793
  42.00000000 -499.61723011
  43.00000000 -499.62124888
  44.00000000 -499.62561333
  45.00000000 -499.63039071
  46.00000000 -499.63553763
  47.00000000 -499.64101754
  48.00000000 -499.64678891
  49.00000000 -499.65276803
  50.00000000 -499.65876819
  51.00000000 -499.66441362
  52.00000000 -499.66877811
  53.00000000 -499.66987645
  54.00000000 -499.66387541
  55.00000000 -499.64428107
  56.00000000 -499.60073142
  57.00000000 -499.51691701
  58.00000000 -499.36686742
  59.00000000 -499.10871652
  60.00000000 -498.67471404
  61.00000000 -497.95618184
  62.00000000 -496.78913581
  63.00000000 -494.97908129
  64.00000000 -492.45896403


--------------------------------
SUGGESTED CITATIONS FOR THIS RUN
--------------------------------

Below you find a list of papers that are relevant to this ORCA run
We neither can nor want to force you to cite these papers, but we appreciate if you do
You receive ORCA, which is the product of decades of hard work by many enthusiastic individuals, for free
The only thing we kindly ask in return is that you cite our papers,
We deeply appreciate it, if you show your appreciation for ORCA by not just citing the generic ORCA reference.

Please note that relegating all ORCA citations to the supporting information does *not* help us.
SI sections are not indexed - citations you put there will not count into any citation statistics
But we need these citations in order to attract the funding resources that allow us to do what we are doing

Therefore, if you are a happy ORCA user, please consider citing a few of the papers listed below in the main body of your paper

In addition to the list printed below, the program has created the file orca.bibtex that contains the list in bibtex format
You can import this file easily into all common literature databanks and citation aid programs


List of essential papers. We consider these as the minimum necessary citations

  1. Neese,F.
     Software update: the ORCA program system, version 5.0
     WIRES Comput. Molec. Sci., 2022 12(1)e1606
     doi.org/10.1002/wcms.1606

List of papers to cite with high priority. The work reported in these papers was absolutely
necessary for this run to complete.
Our perspective: the developers of density functionals and basis sets usually get cited in chemistry papers
Good! But without the algorithms to do something with them, the functionals or basis sets would not do anything.
Hence, in our opinion, the algorithm design and method developments papers are equally worthy of getting cited

  1. Neese,F.
     An improvement of the resolution of the identity approximation for the formation of the Coulomb matrix
     J. Comp. Chem., 2003 24(14)1740-1747
     doi.org/10.1002/jcc.10318
  2. Neese,F.; Wennmohs,F.; Hansen,A.; Becker,U.
     Efficient, approximate and parallel Hartree-Fock and hybrid DFT calculations. A 'chain-of-spheres' algorithm for the Hartree-Fock exchange
     Chem. Phys., 2009 356(1-3)98-109
     doi.org/10.1016/j.chemphys.2008.10.036
  3. Helmich-Paris,B.; de Souza,B.; Neese,F.; Izsák,R.
     An improved chain of spheres for exchange algorithm
     J. Chem. Phys., 2021 155 104109
     doi.org/doi: 10.1063/5.0058766.
  4. Neese,F.
     The SHARK Integral Generation and Digestion System
     J. Comp. Chem., 2022  1-16
     doi.org/10.1002/jcc.26942
  5. Lehtola,S.; Steigemann,C.; Oliveira,M.; Marques,M.
     Recent developments in Libxc - A comprehensive library of functionals for density functional theory
     Software X, 2018 7 
     doi.org/10.1016/j.softx.2017.11.002

List of suggested additional citations. These are papers that are important in the 'surrounding' of 
of this run, or papers that preceded the highly important papers. If you like your results we are grateful for a citation.

  1. Izsak,R.; Neese,F.
     An overlap fitted chain of spheres exchange method
     J. Chem. Phys., 2011 135 144105
     doi.org/10.1063/1.3646921
  2. Izsak,R.; Hansen,A.; Neese,F.
     The resolution of identity and chain of spheres approximations for the LPNO-CCSD singles Fock term
     Molec. Phys., 2012 110 2413-2417
     doi.org/10.1080/00268976.2012.687466
  3. Neese,F.
     The ORCA program system
     WIRES Comput. Molec. Sci., 2012 2(1)73-78
     doi.org/10.1002/wcms.81
  4. Izsak,R.; Neese,F.; Klopper,W.
     Robust fitting techniques in the chain of spheres approximation to the Fock exchange: The role of the complementary space
     J. Chem. Phys., 2013 139 
     doi.org/10.1063/1.4819264
  5. Neese,F.
     Software update: the ORCA program system, version 4.0
     WIRES Comput. Molec. Sci., 2018 8(1)1-6
     doi.org/10.1002/wcms.1327
  6. Neese,F.; Wennmohs,F.; Becker,U.; Riplinger,C.
     The ORCA quantum chemistry program package
     J. Chem. Phys., 2020 152 Art. No. L224108
     doi.org/10.1063/5.0004608

List of optional additional citations

  1. Neese,F.
     Approximate second-order SCF convergence for spin unrestricted wavefunctions
     Chem. Phys. Lett., 2000 325(1-3)93-98
     doi.org/10.1016/s0009-2614(00)00662-x

Timings for individual modules:

Sum of individual times          ...    19345.510 sec (= 322.425 min)
Startup calculation              ...      506.128 sec (=   8.435 min)   2.6 %
SCF iterations                   ...    18534.556 sec (= 308.909 min)  95.8 %
Property calculations            ...      304.826 sec (=   5.080 min)   1.6 %
                             ****ORCA TERMINATED NORMALLY****
TOTAL RUN TIME: 0 days 5 hours 23 minutes 23 seconds 486 msec
