9
Coordinates from ORCA-job orca Relaxed Surface Scan Step 1 E -576.820277320321
  C       0.856751      0.105447     -0.055900
  Cl      2.109353     -0.625179      0.831329
  H       0.921713     -0.178457     -1.101662
  H       0.900411      1.184889      0.050673
  H      -0.083802     -0.253395      0.351405
  O       4.691948      0.199113     -0.070608
  H       3.693747     -0.050441      0.195813
  H       4.945435     -0.088164     -0.965764
  H       4.918443      1.134198      0.079063
>
9
Coordinates from ORCA-job orca Relaxed Surface Scan Step 2 E -576.803007565548
  C       0.899942      0.085983     -0.032084
  Cl      2.069780     -0.596914      0.802255
  H       0.931854     -0.177679     -1.087969
  H       0.907327      1.171592      0.050701
  H      -0.063621     -0.251240      0.346892
  O       4.679653      0.196713     -0.070048
  H       3.677469     -0.040291      0.184887
  H       4.936503     -0.089201     -0.964979
  H       4.915092      1.129047      0.084695
>
9
Coordinates from ORCA-job orca Relaxed Surface Scan Step 3 E -576.764268359044
  C       0.939981      0.067268     -0.008844
  Cl      2.034412     -0.565517      0.764195
  H       0.931193     -0.174760     -1.074966
  H       0.906304      1.158380      0.051441
  H      -0.042760     -0.252108      0.347561
  O       4.670486      0.195036     -0.068032
  H       3.660799     -0.029900      0.172109
  H       4.938161     -0.094917     -0.958552
  H       4.915424      1.124528      0.089438
>
9
Coordinates from ORCA-job orca Relaxed Surface Scan Step 4 E -576.689704955794
  C       0.976070      0.049518      0.013081
  Cl      2.002806     -0.528228      0.717640
  H       0.918422     -0.171391     -1.062753
  H       0.894196      1.145560      0.052284
  H      -0.022124     -0.257833      0.354528
  O       4.666245      0.192598     -0.064306
  H       3.645432     -0.016442      0.155304
  H       4.949373     -0.103912     -0.947822
  H       4.923581      1.118138      0.096393
>
9
Coordinates from ORCA-job orca Relaxed Surface Scan Step 5 E -576.555650497114
  C       1.014403      0.032427      0.034093
  Cl      1.974853     -0.487628      0.669589
  H       0.901476     -0.169973     -1.050692
  H       0.877383      1.133051      0.051946
  H       0.000146     -0.264605      0.363120
  O       4.662229      0.189255     -0.060665
  H       3.626734     -0.001444      0.137298
  H       4.961066     -0.111839     -0.937259
  H       4.935710      1.108766      0.106921
>
9
Coordinates from ORCA-job orca Relaxed Surface Scan Step 6 E -576.322679662518
  C       1.054676      0.016117      0.054277
  Cl      1.950189     -0.445149      0.618426
  H       0.877769     -0.169280     -1.039780
  H       0.853818      1.121677      0.053662
  H       0.022506     -0.273120      0.373367
  O       4.660187      0.185699     -0.056175
  H       3.606265      0.015822      0.116209
  H       4.977569     -0.122152     -0.923601
  H       4.951020      1.098396      0.117967
>
9
Coordinates from ORCA-job orca Relaxed Surface Scan Step 7 E -575.924632108990
  C       1.099681      0.000095      0.074279
  Cl      1.929359     -0.400903      0.568051
  H       0.849109     -0.173128     -1.029630
  H       0.824802      1.111603      0.054630
  H       0.045267     -0.280213      0.383121
  O       4.659223      0.181172     -0.052090
  H       3.582022      0.034692      0.094167
  H       4.994027     -0.129820     -0.911428
  H       4.970509      1.084513      0.133251
>
9
Coordinates from ORCA-job orca Relaxed Surface Scan Step 8 E -575.250959445523
  C       1.158887     -0.015675      0.094854
  Cl      1.917240     -0.359275      0.523359
  H       0.822657     -0.185419     -1.020388
  H       0.797146      1.103948      0.058892
  H       0.075356     -0.277968      0.383378
  O       4.653899      0.176878     -0.049967
  H       3.535326      0.049403      0.077491
  H       5.005349     -0.132021     -0.902487
  H       4.988140      1.068139      0.149217
>
9
Coordinates from ORCA-job orca Relaxed Surface Scan Step 9 E -574.330581946070
  C       1.220797      0.478901      0.971741
  Cl      1.990459      0.237776      1.155747
  H       0.310236     -1.019934     -1.233982
  H       0.246922      0.741057      0.748429
  H      -0.048922     -0.365654     -1.349112
  O       5.083296      0.375640     -0.330161
  H       3.080903      0.713673      0.463280
  H       5.431344      0.550615     -1.205380
  H       5.638966     -0.284062      0.093787
