
                                 *****************
                                 * O   R   C   A *
                                 *****************

                                            #,                                       
                                            ###                                      
                                            ####                                     
                                            #####                                    
                                            ######                                   
                                           ########,                                 
                                     ,,################,,,,,                         
                               ,,#################################,,                 
                          ,,##########################################,,             
                       ,#########################################, ''#####,          
                    ,#############################################,,   '####,        
                  ,##################################################,,,,####,       
                ,###########''''           ''''###############################       
              ,#####''   ,,,,##########,,,,          '''####'''          '####       
            ,##' ,,,,###########################,,,                        '##       
           ' ,,###''''                  '''############,,,                           
         ,,##''                                '''############,,,,        ,,,,,,###''
      ,#''                                            '''#######################'''  
     '                                                          ''''####''''         
             ,#######,   #######,   ,#######,      ##                                
            ,#'     '#,  ##    ##  ,#'     '#,    #''#        ,####,   ,####,        
            ##       ##  ##   ,#'  ##            #'  '#       #'       #'  '#        
            ##       ##  #######   ##           ,######,      #####,   #    #        
            '#,     ,#'  ##    ##  '#,     ,#' ,#      #,     #,   #   #,  ,#        
             '#######'   ##     ##  '#######'  #'      '#     '####' # '####'        



                #########################################################
                #                        -***-                          #
                #          Department of theory and spectroscopy        #
                #                                                       #
                #                      Frank Neese                      #
                #                                                       #
                #     Directorship, Architecture, Infrastructure        #
                #                    SHARK, DRIVERS                     #
                #        Core code/Algorithms in most modules           #
                #                                                       #
                #        Max Planck Institute fuer Kohlenforschung      #
                #                Kaiser Wilhelm Platz 1                 #
                #                 D-45470 Muelheim/Ruhr                 #
                #                      Germany                          #
                #                                                       #
                #                  All rights reserved                  #
                #                        -***-                          #
                #########################################################


                         Program Version 6.0.1  -  RELEASE   -


 With contributions from (in alphabetic order):
[Max-Planck-Institut fuer Kohlenforschung]                               
  Daniel Aravena         : Magnetic Suceptibility                        
  Michael Atanasov       : Ab Initio Ligand Field Theory (pilot matlab implementation)
  Alexander A. Auer      : GIAO ZORA, VPT2 properties, NMR spectrum      
  Ute Becker             : All parallelization in ORCA, NUMFREQ, NUMCALC 
  Giovanni Bistoni       : ED, misc. LED, open-shell LED, HFLD           
  Martin Brehm           : Molecular dynamics                            
  Dmytro Bykov           : pre 5.0 version of the SCF Hessian            
  Marcos Casanova-Páez   : Triplet and SCS-CIS(D). UHF-(DLPNO)-IP/EA/STEOM-CCSD. UHF-CVS-IP/STEOM-CCSD   
  Vijay G. Chilkuri      : MRCI spin determinant printing, contributions to CSF-ICE 
  Pauline Colinet        : FMM embedding                                 
  Dipayan Datta          : RHF DLPNO-CCSD density                        
  Achintya Kumar Dutta   : EOM-CC, STEOM-CC                              
  Nicolas Foglia         : Exact transition moments, OPA infrastructure, MCD improvements    
  Dmitry Ganyushin       : Spin-Orbit,Spin-Spin,Magnetic field MRCI      
  Miquel Garcia-Rates    : C-PCM and meta-GGA Hessian, CCSD/C-PCM, Gaussian charge scheme 
  Tiago L. C. Gouveia    : GS-ROHF, GS-ROCIS                             
  Yang Guo               : DLPNO-NEVPT2, F12-NEVPT2, CIM, IAO-localization        
  Andreas Hansen         : Spin unrestricted coupled pair/coupled cluster methods 
  Ingolf Harden          : AUTO-CI MPn and infrastructure                
  Benjamin Helmich-Paris : MC-RPA, TRAH-(SCF,CASSCF), AVAS, COSX integrals, SCF dyn. polar. 
  Lee Huntington         : MR-EOM, pCC                                   
  Robert Izsak           : Overlap fitted RIJCOSX, COSX-SCS-MP3, EOM     
  Riya Kayal             : Wick's Theorem for AUTO-CI, AUTO-CI UHF-CCSDT 
  Emily Kempfer          : AUTO-CI, RHF CISDT and CCSDT                  
  Christian Kollmar      : KDIIS, OOCD, Brueckner-CCSD(T), CCSD density, CASPT2, CASPT2-K, improved NEVPT2 
  Axel Koslowski         : Symmetry handling                             
  Simone Kossmann        : meta-GGA functionals, TD-DFT gradient, OOMP2, (MP2 Hessian; deprecated post 5.0) 
  Lucas Lang             : DCDCAS                                        
  Marvin Lechner         : AUTO-CI (C++ implementation), FIC-MRCC        
  Spencer Leger          : CASSCF response                               
  Dagmar Lenk            : GEPOL surface, SMD, ORCA-2-JSON               
  Dimitrios Liakos       : Extrapolation schemes; Compound Job, initial MDCI parallelization 
  Dimitrios Manganas     : Further ROCIS development; embedding schemes. LFT, Crystal Embedding 
  Dimitrios Pantazis     : SARC Basis sets                               
  Anastasios Papadopoulos: AUTO-CI, single reference methods and gradients 
  Taras Petrenko         : pre 6.0 DFT Hessian and TD-DFT gradient, (ASA, deprecated), ECA, 1-Electron XAS/XES, NRVS 
  Peter Pinski           : DLPNO-MP2, DLPNO-MP2 Gradient                 
  Christoph Reimann      : Effective Core Potentials                     
  Marius Retegan         : Local ZFS, SOC                                
  Christoph Riplinger    : Optimizer, TS searches, QM/MM, DLPNO-CCSD(T), (RO)-DLPNO pert. Triples 
  Michael Roemelt        : Original ROCIS implementation                 
  Masaaki Saitow         : Open-shell DLPNO-CCSD energy and density      
  Barbara Sandhoefer     : DKH picture change effects                    
  Kantharuban Sivalingam : CASSCF convergence/infrastructure, NEVPT2 and variants, FIC-MRCI 
  Bernardo de Souza      : ESD, SOC TD-DFT                               
  Georgi L. Stoychev     : AutoAux, RI-MP2 NMR, DLPNO-MP2 response, X2C  
  Van Anh Tran           : RI-MP2 g-tensors                              
  Willem Van den Heuvel  : Paramagnetic NMR                              
  Zikuan Wang            : NOTCH, Electric field optimization            
  Frank Wennmohs         : Technical directorship and infrastructure     
  Hang Xu                : AUTO-CI-Response properties                   
                                                                         
[FACCTs GmbH]                                                            
  Markus Bursch, Miquel Garcia-Rates, Christoph Riplinger, Bernardo de Souza, Georgi L. Stoychev 
                                                                 
  APM, Basis sets (HGBS, AHGBS, def-TZVP (Ac-Lr), def2-XVPD (La-Lu)), CI-OPT, improved COSX, DLPNO-Multilevel,           
  DOCKER, DRACO, updates on ESD, GOAT, IRC, LR-CPCM, MBIS, meta-GGA TD-DFT gradient, ML-optimized integration grids, 
  MM, NACMEs, nearIR, NEB, NEB-TS, NL-DFT gradient (VV10), 2- and 3-layer-ONIOM, interface openCOSMO-RS, QMMM,   
  Crystal-QMMM, SF, symmetry and pop. for TD-DFT, r2SCAN hybrids, SOLVATOR                                   
                                                                         
[Other institutions]                                                     
  V. Asgeirsson          : NEB                                           
  Christoph Bannwarth    : sTDA-DFT, sTD-DFT, PBEh-3c, B97-3c, D3        
  Sebastian Ehlert       : rSCAN, r2SCAN, r2SCAN-3c, D4, dhf basis sets  
  Marvin Friede          : D4 for Fr, Ra, Ac-Lr                          
  Lars Goerigk           : TD-DFT with DH, B97 family of functionals     
  Stefan Grimme          : VdW corrections, initial TS optimization, DFT functionals, gCP, sTDA/sTD-DF 
  Waldemar Hujo          : DFT-NL                                        
  H. Jonsson             : NEB                                           
  Holger Kruse           : gCP                                           
  Marcel Mueller         : wB97X-3c, vDZP basis set                      
  Hagen Neugebauer       : wr2SCAN                                       
  Tobias Risthaus        : range-separated hybrid DFT                    
  Lukas Wittmann         : regularized MP2, r2SCAN double-hybrids, wr2SCAN        
                                                                         
We gratefully acknowledge several colleagues who have allowed us to      
interface, adapt or use parts of their codes:                            
  Ed Valeev, F. Pavosevic, A. Kumar             : LibInt (2-el integral package), F12 methods 
  Garnet Chan, S. Sharma, J. Yang, R. Olivares  : DMRG                   
  Ulf Ekstrom                                   : XCFun DFT Library      
  Mihaly Kallay                                 : mrcc  (arbitrary order and MRCC methods)
  Frank Weinhold                                : gennbo (NPA and NBO analysis)           
  Simon Mueller                                 : openCOSMO-RS                            
  Christopher J. Cramer and Donald G. Truhlar   : smd solvation model                     
  S Lehtola, MJT Oliveira, MAL Marques          : LibXC Library                           
  Liviu Ungur et al                             : ANISO software                          


 Your calculation uses the libint2 library for the computation of 2-el integrals
 For citations please refer to: http://libint.valeyev.net

 Your ORCA version has been built with support for libXC version: 6.2.2
 For citations please refer to: https://libxc.gitlab.io

 This ORCA versions uses:
   CBLAS   interface :  Fast vector & matrix operations
   LAPACKE interface :  Fast linear algebra routines
   SCALAPACK package :  Parallel linear algebra routines
   Shared memory     :  Shared parallel matrices
   BLAS/LAPACK       :  OpenBLAS 0.3.27  USE64BITINT DYNAMIC_ARCH NO_AFFINITY Cooperlake SINGLE_THREADED
        Core in use  :  Cooperlake
   Copyright (c) 2011-2014, The OpenBLAS Project




***************************************
The coordinates will be read from file: /temp180/bsavoie2/emille35/mlip_alchemy/sn1_scans/ch3cl_h3o/ch3cl_h3o_opt.xyz
***************************************


Your calculation utilizes the DFT-NL dispersion correction.
Cite in your paper:
Vydrov, O. A.; Van Voorhis, T. J. Chem. Phys. 2010, 133, 244103
Hujo, W.; Grimme, S. J. Chem. Theory Comput. 2011, 7, 3866 
   

Warning: RI is on but no J-basis has been assigned. Assigning Def2/J (nothing to worry about!)
================================================================================

----- Orbital basis set information -----
Your calculation utilizes the basis: def2-TZVPD
   F. Weigend and R. Ahlrichs, Phys. Chem. Chem. Phys. 7, 3297 (2005).
   D. Rappoport and F. Furche, J. Chem. Phys. 133, 134105 (2010)
   D. Rappoport, J. Chem. Phys. 155, 124102 (2021).

----- AuxJ basis set information -----
Your calculation utilizes the auxiliary basis: def2/J
   F. Weigend, Phys. Chem. Chem. Phys. 8, 1057 (2006).

================================================================================
                                        WARNINGS
                       Please study these warnings very carefully!
================================================================================


WARNING: B97M-V or wB97M-V functional requested.
  ===> : libXC variant has now been activated.
         Any manually given DFX/HFX/RangeSep scaling parameters are IGNORED!


WARNING: Geometry Optimization
  ===> : Switching off AutoStart
         For restart on a previous wavefunction, please use MOREAD

WARNING: Analytic gradients for DFT-NL dispersion can only be done using the self-consistent method,
  ===>   Switching to SCNL

WARNING: Self-consistent DFT-NL dispersion not compatible with AutoTRAH.
  ===>   Switching AutoTRAH off


================================================================================
                                       INPUT FILE
================================================================================
NAME = orca.inp
|  1> ! UKS wB97M-V def2-TZVPD Opt PAL2
|  2> 
|  3> %geom
|  4>    Scan
|  5>       B 0 1 = 1.7, 0.5, 12
|  6>    end
|  7> end
|  8> 
|  9> * xyzfile 1 1 /temp180/bsavoie2/emille35/mlip_alchemy/sn1_scans/ch3cl_h3o/ch3cl_h3o_opt.xyz
| 10> 
| 11> # Never forget your bonus line!!
| 12> 
| 13>                          ****END OF INPUT****
================================================================================

                       ******************************
                       *    Relaxed Surface Scan    *
                       ******************************

                      Bond (  1,   0):   range=   1.70000000 ..   0.50000000  steps =   12

There is 1 parameter to be scanned.
There will be   12 constrained geometry optimizations.


         *************************************************************
         *               RELAXED SURFACE SCAN STEP   1               *
         *                                                           *
         *                 Bond (  1,   0)  :   1.70000000           *
         *************************************************************

Geometry optimization settings:
Update method            Update   .... BFGS
Choice of coordinates    CoordSys .... (2022) Redundant Internals
Initial Hessian          InHess   .... Almloef's Model
Max. no of cycles        MaxIter  .... 50

Convergence Tolerances:
Energy Change            TolE     ....  5.0000e-06 Eh
Max. Gradient            TolMAXG  ....  3.0000e-04 Eh/bohr
RMS Gradient             TolRMSG  ....  1.0000e-04 Eh/bohr
Max. Displacement        TolMAXD  ....  4.0000e-03 bohr
RMS Displacement         TolRMSD  ....  2.0000e-03 bohr
Strict Convergence                .... False

------------------------------------------------------------------------------
                        ORCA OPTIMIZATION COORDINATE SETUP
------------------------------------------------------------------------------

The optimization will be done in redundant internal coordinates (2022)
Making redundant internal coordinates   ...  (2022 redundants) done
Evaluating the initial hessian          ...  (Almloef) done
Evaluating the coordinates              ...  done
Calculating the B-matrix                .... done
Calculating the G-matrix                .... done
Diagonalizing the G-matrix              .... done
The first mode is                       ....    4
The number of degrees of freedom        ....   21
Storing new coordinates                 .... done

    -----------------------------------------------------------------
                    Redundant Internal Coordinates


    -----------------------------------------------------------------
         Definition                    Initial Value    Approx d2E/dq
    -----------------------------------------------------------------
      1. B(Cl  1,C   0)                  1.7000         0.296489 C 
      2. B(H   2,C   0)                  1.0816         0.371381   
      3. B(H   3,C   0)                  1.0816         0.371368   
      4. B(H   4,C   0)                  1.0823         0.370660   
      5. B(H   6,Cl  1)                  1.8010         0.059352   
      6. B(H   6,O   5)                  1.0587         0.361924   
      7. B(H   7,O   5)                  0.9705         0.500370   
      8. B(H   8,O   5)                  0.9705         0.500375   
      9. A(Cl  1,C   0,H   4)          105.2391         0.326759   
     10. A(Cl  1,C   0,H   3)          107.9668         0.326862   
     11. A(H   3,C   0,H   4)          111.2877         0.293586   
     12. A(Cl  1,C   0,H   2)          107.9564         0.326864   
     13. A(H   2,C   0,H   3)          112.7019         0.293676   
     14. A(H   2,C   0,H   4)          111.2960         0.293588   
     15. A(C   0,Cl  1,H   6)          108.4539         0.258673   
     16. A(H   6,O   5,H   8)          113.9553         0.301647   
     17. A(H   7,O   5,H   8)          111.4573         0.317822   
     18. A(H   6,O   5,H   7)          113.9787         0.301646   
     19. A(Cl  1,H   6,O   5)          171.7587         0.232459   
     20. D(H   6,Cl  1,C   0,H   3)    -60.8512         0.003234   
     21. D(H   6,Cl  1,C   0,H   4)   -179.7925         0.003234   
     22. D(H   6,Cl  1,C   0,H   2)     61.2616         0.003234   
     23. D(O   5,H   6,Cl  1,C   0)    179.6857         0.001936   
     24. D(Cl  1,H   6,O   5,H   7)    115.7862         0.138391   
     25. D(Cl  1,H   6,O   5,H   8)   -114.7409         0.138391   
    -----------------------------------------------------------------

Number of atoms                         .... 9
Number of degrees of freedom            .... 25


         *************************************************************
         *                GEOMETRY OPTIMIZATION CYCLE   1            *
         *************************************************************
---------------------------------
CARTESIAN COORDINATES (ANGSTROEM)
---------------------------------
  C      0.853761    0.115606   -0.067808
  Cl     2.094142   -0.622383    0.830428
  H      0.962873   -0.189056   -1.099903
  H      0.938800    1.185979    0.062707
  H     -0.067722   -0.260108    0.357606
  O      4.671708    0.200554   -0.073713
  H      3.678020   -0.048421    0.193739
  H      4.923578   -0.086076   -0.966041
  H      4.898841    1.131915    0.077336

----------------------------
CARTESIAN COORDINATES (A.U.)
----------------------------
  NO LB      ZA    FRAG     MASS         X           Y           Z
   0 C     6.0000    0    12.011    1.613374    0.218463   -0.128139
   1 Cl   17.0000    0    35.453    3.957354   -1.176133    1.569281
   2 H     1.0000    0     1.008    1.819566   -0.357264   -2.078516
   3 H     1.0000    0     1.008    1.774074    2.241176    0.118500
   4 H     1.0000    0     1.008   -0.127977   -0.491533    0.675777
   5 O     8.0000    0    15.999    8.828249    0.378992   -0.139298
   6 H     1.0000    0     1.008    6.950451   -0.091503    0.366113
   7 H     1.0000    0     1.008    9.304214   -0.162660   -1.825553
   8 H     1.0000    0     1.008    9.257468    2.139009    0.146144

--------------------------------
INTERNAL COORDINATES (ANGSTROEM)
--------------------------------
 C      0   0   0     0.000000000000     0.00000000     0.00000000
 Cl     1   0   0     1.812910409809     0.00000000     0.00000000
 H      1   2   0     1.081603364912   107.92776576     0.00000000
 H      1   2   3     1.081612453844   107.93775939   237.91401509
 H      1   2   3     1.082132086624   105.29582538   118.95940621
 O      2   1   3     2.852497997385   111.56004941    61.26611377
 H      6   2   1     1.058624874088     5.19188875   359.67949673
 H      6   2   1     0.970452080596   116.14627169   293.25561301
 H      6   2   1     0.970449335605   116.03595496    67.16019740

---------------------------
INTERNAL COORDINATES (A.U.)
---------------------------
 C      0   0   0     0.000000000000     0.00000000     0.00000000
 Cl     1   0   0     3.425904179875     0.00000000     0.00000000
 H      1   2   0     2.043934145212   107.92776576     0.00000000
 H      1   2   3     2.043951320803   107.93775939   237.91401509
 H      1   2   3     2.044933284449   105.29582538   118.95940621
 O      2   1   3     5.390440012617   111.56004941    61.26611377
 H      6   2   1     2.000511090583     5.19188875   359.67949673
 H      6   2   1     1.833888658420   116.14627169   293.25561301
 H      6   2   1     1.833883471139   116.03595496    67.16019740

---------------------
BASIS SET INFORMATION
---------------------
There are 4 groups of distinct atoms

 Group   1 Type C   : 12s6p3d1f contracted to 6s3p3d1f pattern {621111/411/111/1}
 Group   2 Type Cl  : 15s10p4d1f contracted to 6s6p3d1f pattern {732111/511111/211/1}
 Group   3 Type H   : 5s2p contracted to 3s2p pattern {311/11}
 Group   4 Type O   : 12s7p3d1f contracted to 6s4p3d1f pattern {621111/4111/111/1}

Atom   0C    basis set group =>   1
Atom   1Cl   basis set group =>   2
Atom   2H    basis set group =>   3
Atom   3H    basis set group =>   3
Atom   4H    basis set group =>   3
Atom   5O    basis set group =>   4
Atom   6H    basis set group =>   3
Atom   7H    basis set group =>   3
Atom   8H    basis set group =>   3
---------------------------------
AUXILIARY/J BASIS SET INFORMATION
---------------------------------
There are 4 groups of distinct atoms

 Group   1 Type C   : 12s5p4d2f1g contracted to 6s4p3d1f1g pattern {711111/2111/211/2/1}
 Group   2 Type Cl  : 14s5p5d2f1g contracted to 8s4p3d1f1g pattern {71111111/2111/311/2/1}
 Group   3 Type H   : 5s2p1d contracted to 3s1p1d pattern {311/2/1}
 Group   4 Type O   : 12s5p4d2f1g contracted to 6s4p3d1f1g pattern {711111/2111/211/2/1}

Atom   0C    basis set group =>   1
Atom   1Cl   basis set group =>   2
Atom   2H    basis set group =>   3
Atom   3H    basis set group =>   3
Atom   4H    basis set group =>   3
Atom   5O    basis set group =>   4
Atom   6H    basis set group =>   3
Atom   7H    basis set group =>   3
Atom   8H    basis set group =>   3


           ************************************************************
           *        Program running with 2 parallel MPI-processes     *
           *              working on a common directory               *
           ************************************************************
------------------------------------------------------------------------------
                             ORCA STARTUP CALCULATIONS
                           -- RI-GTO INTEGRALS CHOSEN --
------------------------------------------------------------------------------
------------------------------------------------------------------------------
                   ___                                                        
                  /   \      - P O W E R E D   B Y -                         
                 /     \                                                     
                 |  |  |   _    _      __       _____    __    __             
                 |  |  |  | |  | |    /  \     |  _  \  |  |  /  |          
                  \  \/   | |  | |   /    \    | | | |  |  | /  /          
                 / \  \   | |__| |  /  /\  \   | |_| |  |  |/  /          
                |  |  |   |  __  | /  /__\  \  |    /   |      \           
                |  |  |   | |  | | |   __   |  |    \   |  |\   \          
                \     /   | |  | | |  |  |  |  | |\  \  |  | \   \       
                 \___/    |_|  |_| |__|  |__|  |_| \__\ |__|  \__/        
                                                                              
                      - O R C A' S   B I G   F R I E N D -                    
                                      &                                       
                       - I N T E G R A L  F E E D E R -                       
                                                                              
 v1 FN, 2020, v2 2021, v3 2022-2024                                           
------------------------------------------------------------------------------


----------------------
SHARK INTEGRAL PACKAGE
----------------------

Number of atoms                             ...      9
Number of basis functions                   ...    177
Number of shells                            ...     73
Maximum angular momentum                    ...      3
Integral batch strategy                     ... SHARK/LIBINT Hybrid
RI-J (if used) integral strategy            ... SPLIT-RIJ (Revised 2003 algorithm where possible)
Printlevel                                  ...      1
Contraction scheme used                     ... SEGMENTED contraction
Prescreening option                         ... SCHWARTZ
   Thresh                                   ... 2.500e-11
   Tcut                                     ... 2.500e-12
   Tpresel                                  ... 2.500e-12 
Coulomb Range Separation                    ... NOT USED
Exchange Range Separation                   ... Long Range
   Mu parameter                             ... 3.000e-01
   Scaling (regular/separated)              ... 1.500e-01 8.500e-01
Multipole approximations                    ... NOT USED
Finite Nucleus Model                        ... NOT USED
CABS basis                                  ... NOT available
Auxiliary Coulomb fitting basis             ... AVAILABLE
   # of basis functions in Aux-J            ...    215
   # of shells in Aux-J                     ...     77
   Maximum angular momentum in Aux-J        ...      4
Auxiliary J/K fitting basis                 ... NOT available
Auxiliary Correlation fitting basis         ... NOT available
Auxiliary 'external' fitting basis          ... NOT available

Checking pre-screening integrals            ... done (  0.0 sec) Dimension = 73
Check shell pair data                       ... done (  0.0 sec)
Shell pair information
Shell pair cut-off parameter TPreSel        ...   2.5e-12
Total number of shell pairs                 ...      2701
Shell pairs after pre-screening             ...      2570
Total number of primitive shell pairs       ...      7001
Primitive shell pairs kept                  ...      5528
          la=0 lb=0:    619 shell pairs
          la=1 lb=0:    854 shell pairs
          la=1 lb=1:    319 shell pairs
          la=2 lb=0:    310 shell pairs
          la=2 lb=1:    219 shell pairs
          la=2 lb=2:     44 shell pairs
          la=3 lb=0:     99 shell pairs
          la=3 lb=1:     73 shell pairs
          la=3 lb=2:     27 shell pairs
          la=3 lb=3:      6 shell pairs

Calculating one electron integrals          ... done (  0.0 sec)
Calculating RI/J V-Matrix + Cholesky decomp.... done (  0.0 sec)
Calculating Nuclear repulsion               ... done (  0.0 sec) ENN=    116.122760314038 Eh

Diagonalization of the overlap matrix:
Smallest eigenvalue                        ... 3.367e-05
Time for diagonalization                   ...    0.002 sec
Threshold for overlap eigenvalues          ... 1.000e-07
Number of eigenvalues below threshold      ... 0
Time for construction of square roots      ...    0.009 sec
Total time needed                          ...    0.016 sec

-------------------
DFT GRID GENERATION
-------------------

General Integration Accuracy     IntAcc      ... 4.388
Radial Grid Type                 RadialGrid  ... OptM3 with GC (2021)
Angular Grid (max. ang.)         AngularGrid ... 4 (Lebedev-302)
Angular grid pruning method      GridPruning ... 4 (adaptive)
Weight generation scheme         WeightScheme... mBecke (2022)
Basis function cutoff            BFCut       ... 1.0000e-11
Integration weight cutoff        WCut        ... 1.0000e-14
Partially contracted basis set               ... off
Rotationally invariant grid construction     ... off
Angular grids for H and He will be reduced by one unit
Diffuse basis detected: some atoms will have their outermost
                        angular grid increased by 1.

Total number of grid points                  ...    41367
Total number of batches                      ...      652
Average number of points per batch           ...       63
Average number of grid points per atom       ...     4596

------------------
NL GRID GENERATION
------------------

General Integration Accuracy     IntAcc      ... 4.004
Radial Grid Type                 RadialGrid  ... OptM3 with GC (2021)
Angular Grid (max. ang.)         AngularGrid ... 2 (Lebedev-110)
Angular grid pruning method      GridPruning ... 4 (adaptive)
Weight generation scheme         WeightScheme... mBecke (2022)
Basis function cutoff            BFCut       ... 1.0000e-10
Integration weight cutoff        WCut        ... 1.0000e-14
Partially contracted basis set               ... off
Rotationally invariant grid construction     ... off
Angular grids for H and He will be reduced by one unit
Diffuse basis detected: some atoms will have their outermost
                        angular grid increased by 1.

Total number of grid points                  ...    13422
Total number of batches                      ...      214
Average number of points per batch           ...       62
Average number of grid points per atom       ...     1491

--------------------
COSX GRID GENERATION
--------------------

GRIDX 1
-------
General Integration Accuracy     IntAcc      ... 3.816
Radial Grid Type                 RadialGrid  ... OptM3 with GC (2021)
Angular Grid (max. ang.)         AngularGrid ... 1 (Lebedev-50)
Angular grid pruning method      GridPruning ... 4 (adaptive)
Weight generation scheme         WeightScheme... mBecke (2022)
Basis function cutoff            BFCut       ... 1.0000e-11
Integration weight cutoff        WCut        ... 1.0000e-14
Partially contracted basis set               ... on
Rotationally invariant grid construction     ... off
Angular grids for H and He will be reduced by one unit
Diffuse basis detected: some atoms will have their outermost
                        angular grid increased by 1.

Total number of grid points                  ...     6406
Total number of batches                      ...       54
Average number of points per batch           ...      118
Average number of grid points per atom       ...      712
UseSFitting                                  ... on

GRIDX 2
-------
General Integration Accuracy     IntAcc      ... 4.020
Radial Grid Type                 RadialGrid  ... OptM3 with GC (2021)
Angular Grid (max. ang.)         AngularGrid ... 2 (Lebedev-110)
Angular grid pruning method      GridPruning ... 4 (adaptive)
Weight generation scheme         WeightScheme... mBecke (2022)
Basis function cutoff            BFCut       ... 1.0000e-11
Integration weight cutoff        WCut        ... 1.0000e-14
Partially contracted basis set               ... on
Rotationally invariant grid construction     ... off
Angular grids for H and He will be reduced by one unit
Diffuse basis detected: some atoms will have their outermost
                        angular grid increased by 1.

Total number of grid points                  ...    11975
Total number of batches                      ...       98
Average number of points per batch           ...      122
Average number of grid points per atom       ...     1331
UseSFitting                                  ... on

GRIDX 3
-------
General Integration Accuracy     IntAcc      ... 4.338
Radial Grid Type                 RadialGrid  ... OptM3 with GC (2021)
Angular Grid (max. ang.)         AngularGrid ... 3 (Lebedev-194)
Angular grid pruning method      GridPruning ... 4 (adaptive)
Weight generation scheme         WeightScheme... mBecke (2022)
Basis function cutoff            BFCut       ... 1.0000e-11
Integration weight cutoff        WCut        ... 1.0000e-14
Partially contracted basis set               ... on
Rotationally invariant grid construction     ... off
Angular grids for H and He will be reduced by one unit
Diffuse basis detected: some atoms will have their outermost
                        angular grid increased by 1.

Total number of grid points                  ...    28016
Total number of batches                      ...      224
Average number of points per batch           ...      125
Average number of grid points per atom       ...     3113
UseSFitting                                  ... on
Initializing property integral containers    ... done (  0.0 sec)

SHARK setup successfully completed in   0.7 seconds

Maximum memory used throughout the entire STARTUP-calculation: 18.0 MB


           ************************************************************
           *        Program running with 2 parallel MPI-processes     *
           *              working on a common directory               *
           ************************************************************
-------------------------------------------------------------------------------
                                 ORCA GUESS
                   Start orbitals & Density for SCF / CASSCF
-------------------------------------------------------------------------------

------------
SCF SETTINGS
------------
Hamiltonian:
 Density Functional     Method          .... DFT(GTOs)
  Functional kind                       .... Exchange-Correlation
  Functional name                       .... wB97M-V exchange-correlation functional
  Functional family                     .... Hybrid MGGA
  Functional refs                              
    [ 0] N. Mardirossian and M. Head-Gordon.,  J. Chem. Phys. 144, 214110 (2016), doi: 10.1063/1.4952647
  Fraction of HF Exchange (short range) .... 0.1500
  Fraction of HF Exchange (long range)  .... 1.0000
  Range separation parameter mu         .... 0.3000
  Functional external parameters        .... 17
    Parameter  0 _cx00      =  8.500000e-01 : u^00 coefficient for exchange
    Parameter  1 _cx01      =  1.007000e+00 : u^01 coefficient for exchange
    Parameter  2 _cx10      =  2.590000e-01 : u^10 coefficient for exchange
    Parameter  3 _css00     =  4.430000e-01 : u^00 coefficient for same-spin correlation
    Parameter  4 _css04     = -1.437000e+00 : u^04 coefficient for same-spin correlation
    Parameter  5 _css10     = -4.535000e+00 : u^10 coefficient for same-spin correlation
    Parameter  6 _css20     = -3.390000e+00 : u^20 coefficient for same-spin correlation
    Parameter  7 _css43     =  4.278000e+00 : u^43 coefficient for same-spin correlation
    Parameter  8 _cos00     =  1.000000e+00 : u^00 coefficient for opposite-spin correlation
    Parameter  9 _cos10     =  1.358000e+00 : u^10 coefficient for opposite-spin correlation
    Parameter 10 _cos20     =  2.924000e+00 : u^20 coefficient for opposite-spin correlation
    Parameter 11 _cos21     = -8.812000e+00 : u^21 coefficient for opposite-spin correlation
    Parameter 12 _cos60     = -1.390000e+00 : u^60 coefficient for opposite-spin correlation
    Parameter 13 _cos61     =  9.142000e+00 : u^61 coefficient for opposite-spin correlation
    Parameter 14 _alpha     =  1.000000e+00 : fraction of HF exchange
    Parameter 15 _beta      = -8.500000e-01 : fraction of short-range exchange
    Parameter 16 _omega     =  3.000000e-01 : range-separation constant
 Long-range corrected/Screened/Range-Separated Hybrid DFT is turned on
   Amount of maximum screened exact exchange              ....  0.850000
   Range separation parameter mu (erf(mu*r12)/r12)        ....  0.300000
   NL short-range parameter             ....  6.000000
   NL long-range parameter              ....  0.010000
 RI-approximation to the Coulomb term is turned on
   Number of AuxJ basis functions       .... 215
   RIJ-COSX (HFX calculated with COS-X)).... on


General Settings:
 Integral files         IntName         .... orca
 Hartree-Fock type      HFTyp           .... UHF
 Total Charge           Charge          ....    1
 Multiplicity           Mult            ....    1
 Number of Electrons    NEL             ....   36
 Basis Dimension        Dim             ....  177
 Nuclear Repulsion      ENuc            ....    116.1227603140 Eh

Convergence Acceleration:
 AO-DIIS                CNVDIIS         .... on
   Start iteration      DIISMaxIt       ....    12
   Startup error        DIISStart       ....  0.200000
   # of expansion vecs  DIISMaxEq       ....     5
   Bias factor          DIISBfac        ....   1.050
   Max. coefficient     DIISMaxC        ....  10.000
 MO-DIIS                CNVKDIIS        .... off
 Trust-Rad. Augm. Hess. CNVTRAH         .... off
 SOSCF                  CNVSOSCF        .... on
   Start iteration      SOSCFMaxIt      ....   150
   Startup grad/error   SOSCFStart      ....  0.003300
   Hessian update       SOSCFHessUp     .... L-BFGS
 Level Shifting         CNVShift        .... on
   Level shift para.    LevelShift      ....    0.2500
   Turn off err/grad.   ShiftErr        ....    0.0010
 Zerner damping         CNVZerner       .... off
 Static damping         CNVDamp         .... on
   Fraction old density DampFac         ....    0.7000
   Max. Damping (<1)    DampMax         ....    0.9800
   Min. Damping (>=0)   DampMin         ....    0.0000
   Turn off err/grad.   DampErr         ....    0.1000

SCF Procedure:
 Maximum # iterations   MaxIter         ....   125
 SCF integral mode      SCFMode         .... Direct
   Integral package                     .... SHARK and LIBINT hybrid scheme
 Reset frequency        DirectResetFreq ....    20
 Integral Threshold     Thresh          ....  2.500e-11 Eh
 Primitive CutOff       TCut            ....  2.500e-12 Eh

Convergence Tolerance:
 Convergence Check Mode ConvCheckMode   .... Total+1el-Energy
 Convergence forced     ConvForced      .... 0
 Energy Change          TolE            ....  1.000e-08 Eh
 1-El. energy change                    ....  1.000e-05 Eh
 Orbital Gradient       TolG            ....  1.000e-05
 Orbital Rotation angle TolX            ....  1.000e-05
 DIIS Error             TolErr          ....  5.000e-07

------------------------------
INITIAL GUESS: MODEL POTENTIAL
------------------------------
Loading Hartree-Fock densities                     ... done
Calculating cut-offs                               ... done
Initializing the effective Hamiltonian             ... done
Setting up the integral package (SHARK)            ... done
Starting the Coulomb interaction                   ... done (   0.0 sec)
Making the grid                                    ... done (   0.1 sec)
Mapping shells                                     ... done
Starting the XC term evaluation                    ... done (   0.0 sec)
  promolecular density results
     # of electrons  =     36.999601219
     EX              =    -42.483387420
     EC              =     -1.308577857
     EX+EC           =    -43.791965277
Transforming the Hamiltonian                       ... done (   0.0 sec)
Diagonalizing the Hamiltonian                      ... done (   0.0 sec)
Back transforming the eigenvectors                 ... done (   0.0 sec)
Now organizing SCF variables                       ... done
                      ------------------
                      INITIAL GUESS DONE (   0.2 sec)
                      ------------------
             **** ENERGY FILE WAS UPDATED (orca.en.tmp) ****
Finished Guess after   0.3 sec
Maximum memory used throughout the entire GUESS-calculation: 11.7 MB


           ************************************************************
           *        Program running with 2 parallel MPI-processes     *
           *              working on a common directory               *
           ************************************************************

-------------------------------------------------------------------------------------------
                                      ORCA LEAN-SCF
                              memory conserving SCF solver
-------------------------------------------------------------------------------------------

----------------------------------------D-I-I-S--------------------------------------------
Iteration    Energy (Eh)           Delta-E    RMSDP     MaxDP     DIISErr   Damp  Time(sec)
-------------------------------------------------------------------------------------------
               ***  Starting incremental Fock matrix formation  ***
    1    -576.7417694739527860     0.00e+00  6.79e-04  1.70e-02  9.21e-02  0.700   2.4
    2    -576.7738970460326300    -3.21e-02  5.68e-04  1.49e-02  4.62e-02  0.700   2.1
                               ***Turning on AO-DIIS***
    3    -576.7895523473438288    -1.57e-02  3.96e-04  1.24e-02  2.07e-02  0.700   1.9
    4    -576.7989581911095911    -9.41e-03  9.23e-04  2.85e-02  1.44e-02  0.000   1.9
                              *** Initializing SOSCF ***
---------------------------------------S-O-S-C-F--------------------------------------
Iteration    Energy (Eh)           Delta-E    RMSDP     MaxDP     MaxGrad    Time(sec)
--------------------------------------------------------------------------------------
    5    -576.8194950975741904    -2.05e-02  7.65e-05  3.01e-03  1.52e-03     1.9
               *** Restarting incremental Fock matrix formation ***
    6    -576.8195385616098747    -4.35e-05  2.74e-05  5.58e-04  4.41e-04     2.3
    7    -576.8195462635752619    -7.70e-06  1.52e-05  3.48e-04  2.81e-04     2.1
    8    -576.8195483611702912    -2.10e-06  4.32e-06  1.23e-04  6.67e-05     2.1
    9    -576.8195485119634895    -1.51e-07  1.15e-06  3.86e-05  2.31e-05     2.0
   10    -576.8195485180582409    -6.09e-09  2.80e-07  7.27e-06  4.85e-06     1.9
                 **** Energy Check signals convergence ****

               *****************************************************
               *                     SUCCESS                       *
               *           SCF CONVERGED AFTER  10 CYCLES          *
               *****************************************************

Recomputing exchange energy using gridx3       ... done (    2.149 sec)
Old exchange energy                            :    -11.291995359 Eh
New exchange energy                            :    -11.291964607 Eh
Exchange energy change after final integration :      0.000030753 Eh
Total energy after final integration           :   -576.819517765 Eh
             **** ENERGY FILE WAS UPDATED (orca.en.tmp) ****

----------------
TOTAL SCF ENERGY
----------------

Total Energy       :       -576.81951776516917 Eh          -15696.05705 eV

Components:
Nuclear Repulsion  :        116.12276031403810 Eh            3159.86095 eV
Electronic Energy  :       -693.09045783424381 Eh          -18859.95018 eV
One Electron Energy:      -1016.15840878824110 Eh          -27651.07606 eV
Two Electron Energy:        323.06795095399735 Eh            8791.12588 eV

Virial components:
Potential Energy   :      -1152.73569234268984 Eh          -31367.53288 eV
Kinetic Energy     :        575.91617457752068 Eh           15671.47583 eV
Virial Ratio       :          2.00156853241413

DFT components:
N(Alpha)           :       18.000003500223 electrons
N(Beta)            :       18.000003500223 electrons
N(Total)           :       36.000007000445 electrons
NL Energy, E(C,NL) :        0.148149002147 Eh       
E(XC)              :      -32.887235788109 Eh       

---------------
SCF CONVERGENCE
---------------

  Last Energy change         ...    6.0948e-09  Tolerance :   1.0000e-08
  Last MAX-Density change    ...    7.2745e-06  Tolerance :   1.0000e-07
  Last RMS-Density change    ...    2.8046e-07  Tolerance :   5.0000e-09
  Last DIIS Error            ...    1.5213e-03  Tolerance :   5.0000e-07
  Last Orbital Gradient      ...    4.8469e-06  Tolerance :   1.0000e-05
  Last Orbital Rotation      ...    7.4070e-06  Tolerance :   1.0000e-05


----------------------
UHF SPIN CONTAMINATION
----------------------

Warning: in a DFT calculation there is little theoretical justification to 
         calculate <S**2> as in Hartree-Fock theory. We will do it anyways
         but you should keep in mind that the values have only limited relevance

Expectation value of <S**2>     :     0.000000
Ideal value S*(S+1) for S=0.0   :     0.000000
Deviation                       :     0.000000

----------------
ORBITAL ENERGIES
----------------
                 SPIN UP ORBITALS
  NO   OCC          E(Eh)            E(eV) 
   0   1.0000    -102.071469     -2777.5059 
   1   1.0000     -19.684992      -535.6559 
   2   1.0000     -10.556939      -287.2689 
   3   1.0000      -9.845498      -267.9096 
   4   1.0000      -7.548860      -205.4149 
   5   1.0000      -7.543363      -205.2653 
   6   1.0000      -7.541360      -205.2108 
   7   1.0000      -1.498233       -40.7690 
   8   1.0000      -1.198890       -32.6235 
   9   1.0000      -0.986038       -26.8315 
  10   1.0000      -0.978438       -26.6246 
  11   1.0000      -0.945281       -25.7224 
  12   1.0000      -0.784129       -21.3372 
  13   1.0000      -0.739767       -20.1301 
  14   1.0000      -0.739421       -20.1207 
  15   1.0000      -0.708863       -19.2891 
  16   1.0000      -0.604401       -16.4466 
  17   1.0000      -0.590382       -16.0651 
  18   0.0000      -0.162928        -4.4335 
  19   0.0000      -0.100519        -2.7353 
  20   0.0000      -0.096231        -2.6186 
  21   0.0000      -0.079644        -2.1672 
  22   0.0000      -0.056128        -1.5273 
  23   0.0000      -0.051794        -1.4094 
  24   0.0000      -0.046425        -1.2633 
  25   0.0000      -0.026782        -0.7288 
  26   0.0000      -0.015709        -0.4275 
  27   0.0000      -0.009260        -0.2520 
  28   0.0000      -0.006432        -0.1750 

                 SPIN DOWN ORBITALS
  NO   OCC          E(Eh)            E(eV) 
   0   1.0000    -102.071469     -2777.5059 
   1   1.0000     -19.684992      -535.6559 
   2   1.0000     -10.556939      -287.2689 
   3   1.0000      -9.845498      -267.9096 
   4   1.0000      -7.548860      -205.4149 
   5   1.0000      -7.543363      -205.2653 
   6   1.0000      -7.541360      -205.2108 
   7   1.0000      -1.498233       -40.7690 
   8   1.0000      -1.198890       -32.6235 
   9   1.0000      -0.986038       -26.8315 
  10   1.0000      -0.978438       -26.6246 
  11   1.0000      -0.945281       -25.7224 
  12   1.0000      -0.784129       -21.3372 
  13   1.0000      -0.739767       -20.1301 
  14   1.0000      -0.739421       -20.1207 
  15   1.0000      -0.708863       -19.2891 
  16   1.0000      -0.604401       -16.4466 
  17   1.0000      -0.590382       -16.0651 
  18   0.0000      -0.162928        -4.4335 
  19   0.0000      -0.100519        -2.7353 
  20   0.0000      -0.096231        -2.6186 
  21   0.0000      -0.079644        -2.1672 
  22   0.0000      -0.056128        -1.5273 
  23   0.0000      -0.051794        -1.4094 
  24   0.0000      -0.046425        -1.2633 
  25   0.0000      -0.026782        -0.7288 
  26   0.0000      -0.015709        -0.4275 
  27   0.0000      -0.009260        -0.2520 
  28   0.0000      -0.006432        -0.1750 
*Only the first 10 virtual orbitals were printed.

                    ********************************
                    * MULLIKEN POPULATION ANALYSIS *
                    ********************************

--------------------------------------------
MULLIKEN ATOMIC CHARGES AND SPIN POPULATIONS
--------------------------------------------
   0 C :   -0.509413    0.000000
   1 Cl:   -0.188250   -0.000000
   2 H :    0.280371   -0.000000
   3 H :    0.280330   -0.000000
   4 H :    0.268860   -0.000000
   5 O :   -0.384009   -0.000000
   6 H :    0.358665   -0.000000
   7 H :    0.446784    0.000000
   8 H :    0.446663    0.000000
Sum of atomic charges         :    1.0000000
Sum of atomic spin populations:   -0.0000000

-----------------------------------------------------
MULLIKEN REDUCED ORBITAL CHARGES AND SPIN POPULATIONS
-----------------------------------------------------
CHARGE
  0 C s       :     3.289634  s :     3.289634
      pz      :     1.087806  p :     3.172382
      px      :     0.956619
      py      :     1.127957
      dz2     :     0.032475  d :     0.043603
      dxz     :     0.001959
      dyz     :    -0.005478
      dx2y2   :     0.020903
      dxy     :    -0.006257
      f0      :     0.000640  f :     0.003794
      f+1     :     0.000689
      f-1     :     0.000372
      f+2     :     0.000449
      f-2     :     0.000401
      f+3     :     0.000529
      f-3     :     0.000713

  1 Cls       :     5.954709  s :     5.954709
      pz      :     3.777642  p :    11.168212
      px      :     3.547559
      py      :     3.843011
      dz2     :     0.007153  d :     0.058860
      dxz     :     0.017985
      dyz     :     0.008977
      dx2y2   :     0.009616
      dxy     :     0.015129
      f0      :     0.000721  f :     0.006469
      f+1     :     0.001089
      f-1     :     0.000380
      f+2     :     0.000962
      f-2     :     0.001431
      f+3     :     0.000971
      f-3     :     0.000915

  2 H s       :     0.668493  s :     0.668493
      pz      :     0.031460  p :     0.051136
      px      :     0.007679
      py      :     0.011997

  3 H s       :     0.668637  s :     0.668637
      pz      :     0.013980  p :     0.051033
      px      :     0.007536
      py      :     0.029517

  4 H s       :     0.673654  s :     0.673654
      pz      :     0.011088  p :     0.057486
      px      :     0.035384
      py      :     0.011015

  5 O s       :     3.658878  s :     3.658878
      pz      :     1.575996  p :     4.702752
      px      :     1.608796
      py      :     1.517961
      dz2     :     0.008847  d :     0.020800
      dxz     :     0.003177
      dyz     :     0.000300
      dx2y2   :     0.005861
      dxy     :     0.002615
      f0      :     0.000179  f :     0.001578
      f+1     :     0.000270
      f-1     :     0.000357
      f+2     :     0.000208
      f-2     :     0.000079
      f+3     :     0.000228
      f-3     :     0.000256

  6 H s       :     0.641981  s :     0.641981
      pz      :    -0.001876  p :    -0.000645
      px      :    -0.003514
      py      :     0.004744

  7 H s       :     0.515954  s :     0.515954
      pz      :     0.017671  p :     0.037262
      px      :     0.009570
      py      :     0.010021

  8 H s       :     0.516042  s :     0.516042
      pz      :     0.009201  p :     0.037296
      px      :     0.009258
      py      :     0.018837


SPIN
  0 C s       :     0.000000  s :     0.000000
      pz      :     0.000000  p :    -0.000000
      px      :    -0.000000
      py      :    -0.000000
      dz2     :     0.000000  d :     0.000000
      dxz     :    -0.000000
      dyz     :     0.000000
      dx2y2   :     0.000000
      dxy     :    -0.000000
      f0      :    -0.000000  f :    -0.000000
      f+1     :    -0.000000
      f-1     :    -0.000000
      f+2     :    -0.000000
      f-2     :    -0.000000
      f+3     :    -0.000000
      f-3     :    -0.000000

  1 Cls       :    -0.000000  s :    -0.000000
      pz      :    -0.000000  p :    -0.000000
      px      :    -0.000000
      py      :    -0.000000
      dz2     :    -0.000000  d :    -0.000000
      dxz     :    -0.000000
      dyz     :    -0.000000
      dx2y2   :    -0.000000
      dxy     :    -0.000000
      f0      :    -0.000000  f :    -0.000000
      f+1     :    -0.000000
      f-1     :     0.000000
      f+2     :    -0.000000
      f-2     :    -0.000000
      f+3     :     0.000000
      f-3     :     0.000000

  2 H s       :    -0.000000  s :    -0.000000
      pz      :    -0.000000  p :    -0.000000
      px      :    -0.000000
      py      :     0.000000

  3 H s       :    -0.000000  s :    -0.000000
      pz      :     0.000000  p :    -0.000000
      px      :    -0.000000
      py      :    -0.000000

  4 H s       :    -0.000000  s :    -0.000000
      pz      :    -0.000000  p :    -0.000000
      px      :    -0.000000
      py      :    -0.000000

  5 O s       :    -0.000000  s :    -0.000000
      pz      :     0.000000  p :    -0.000000
      px      :    -0.000000
      py      :    -0.000000
      dz2     :     0.000000  d :     0.000000
      dxz     :     0.000000
      dyz     :    -0.000000
      dx2y2   :     0.000000
      dxy     :     0.000000
      f0      :     0.000000  f :     0.000000
      f+1     :     0.000000
      f-1     :    -0.000000
      f+2     :     0.000000
      f-2     :     0.000000
      f+3     :     0.000000
      f-3     :     0.000000

  6 H s       :    -0.000000  s :    -0.000000
      pz      :    -0.000000  p :    -0.000000
      px      :    -0.000000
      py      :    -0.000000

  7 H s       :     0.000000  s :     0.000000
      pz      :     0.000000  p :     0.000000
      px      :     0.000000
      py      :     0.000000

  8 H s       :     0.000000  s :     0.000000
      pz      :    -0.000000  p :     0.000000
      px      :     0.000000
      py      :    -0.000000



                     *******************************
                     * LOEWDIN POPULATION ANALYSIS *
                     *******************************

-------------------------------------------
LOEWDIN ATOMIC CHARGES AND SPIN POPULATIONS
-------------------------------------------
   0 C :   -0.461549    0.000000
   1 Cl:    0.732790   -0.000000
   2 H :    0.051780   -0.000000
   3 H :    0.051756    0.000000
   4 H :    0.053658    0.000000
   5 O :    0.224408   -0.000000
   6 H :   -0.004116   -0.000000
   7 H :    0.175648    0.000000
   8 H :    0.175625   -0.000000

----------------------------------------------------
LOEWDIN REDUCED ORBITAL CHARGES AND SPIN POPULATIONS
----------------------------------------------------
CHARGE
  0 C s       :     2.817000  s :     2.817000
      pz      :     1.008466  p :     2.981510
      px      :     0.950738
      py      :     1.022306
      dz2     :     0.149457  d :     0.627114
      dxz     :     0.134567
      dyz     :     0.074783
      dx2y2   :     0.150500
      dxy     :     0.117807
      f0      :     0.003494  f :     0.035925
      f+1     :     0.005186
      f-1     :     0.004178
      f+2     :     0.005639
      f-2     :     0.007746
      f+3     :     0.003793
      f-3     :     0.005889

  1 Cls       :     5.340118  s :     5.340118
      pz      :     3.597672  p :    10.580963
      px      :     3.342672
      py      :     3.640619
      dz2     :     0.064911  d :     0.329742
      dxz     :     0.076093
      dyz     :     0.036779
      dx2y2   :     0.084304
      dxy     :     0.067654
      f0      :     0.001486  f :     0.016387
      f+1     :     0.003261
      f-1     :     0.001091
      f+2     :     0.002760
      f-2     :     0.002932
      f+3     :     0.002693
      f-3     :     0.002164

  2 H s       :     0.715587  s :     0.715587
      pz      :     0.117140  p :     0.232633
      px      :     0.054090
      py      :     0.061404

  3 H s       :     0.715608  s :     0.715608
      pz      :     0.058067  p :     0.232637
      px      :     0.054036
      py      :     0.120534

  4 H s       :     0.708506  s :     0.708506
      pz      :     0.064482  p :     0.237836
      px      :     0.109861
      py      :     0.063493

  5 O s       :     3.249380  s :     3.249380
      pz      :     1.474192  p :     4.418360
      px      :     1.517219
      py      :     1.426950
      dz2     :     0.027060  d :     0.105402
      dxz     :     0.018329
      dyz     :     0.004159
      dx2y2   :     0.039071
      dxy     :     0.016782
      f0      :     0.000311  f :     0.002450
      f+1     :     0.000442
      f-1     :     0.000533
      f+2     :     0.000257
      f-2     :     0.000068
      f+3     :     0.000416
      f-3     :     0.000423

  6 H s       :     0.532202  s :     0.532202
      pz      :     0.099732  p :     0.471914
      px      :     0.277152
      py      :     0.095030

  7 H s       :     0.552046  s :     0.552046
      pz      :     0.140307  p :     0.272306
      px      :     0.067396
      py      :     0.064603

  8 H s       :     0.552046  s :     0.552046
      pz      :     0.061704  p :     0.272329
      px      :     0.066170
      py      :     0.144455


SPIN
  0 C s       :     0.000000  s :     0.000000
      pz      :     0.000000  p :    -0.000000
      px      :    -0.000000
      py      :    -0.000000
      dz2     :    -0.000000  d :     0.000000
      dxz     :     0.000000
      dyz     :     0.000000
      dx2y2   :     0.000000
      dxy     :     0.000000
      f0      :    -0.000000  f :    -0.000000
      f+1     :    -0.000000
      f-1     :     0.000000
      f+2     :    -0.000000
      f-2     :     0.000000
      f+3     :     0.000000
      f-3     :    -0.000000

  1 Cls       :    -0.000000  s :    -0.000000
      pz      :    -0.000000  p :    -0.000000
      px      :    -0.000000
      py      :    -0.000000
      dz2     :     0.000000  d :    -0.000000
      dxz     :    -0.000000
      dyz     :     0.000000
      dx2y2   :     0.000000
      dxy     :    -0.000000
      f0      :     0.000000  f :     0.000000
      f+1     :    -0.000000
      f-1     :     0.000000
      f+2     :    -0.000000
      f-2     :     0.000000
      f+3     :     0.000000
      f-3     :     0.000000

  2 H s       :    -0.000000  s :    -0.000000
      pz      :     0.000000  p :     0.000000
      px      :    -0.000000
      py      :     0.000000

  3 H s       :     0.000000  s :     0.000000
      pz      :    -0.000000  p :     0.000000
      px      :    -0.000000
      py      :     0.000000

  4 H s       :    -0.000000  s :    -0.000000
      pz      :    -0.000000  p :     0.000000
      px      :     0.000000
      py      :    -0.000000

  5 O s       :    -0.000000  s :    -0.000000
      pz      :    -0.000000  p :    -0.000000
      px      :    -0.000000
      py      :    -0.000000
      dz2     :    -0.000000  d :    -0.000000
      dxz     :     0.000000
      dyz     :    -0.000000
      dx2y2   :    -0.000000
      dxy     :     0.000000
      f0      :     0.000000  f :     0.000000
      f+1     :    -0.000000
      f-1     :     0.000000
      f+2     :     0.000000
      f-2     :     0.000000
      f+3     :     0.000000
      f-3     :     0.000000

  6 H s       :    -0.000000  s :    -0.000000
      pz      :    -0.000000  p :    -0.000000
      px      :    -0.000000
      py      :    -0.000000

  7 H s       :    -0.000000  s :    -0.000000
      pz      :     0.000000  p :     0.000000
      px      :    -0.000000
      py      :     0.000000

  8 H s       :    -0.000000  s :    -0.000000
      pz      :    -0.000000  p :    -0.000000
      px      :     0.000000
      py      :     0.000000



                      *****************************
                      * MAYER POPULATION ANALYSIS *
                      *****************************

  NA   - Mulliken gross atomic population
  ZA   - Total nuclear charge
  QA   - Mulliken gross atomic charge
  VA   - Mayer's total valence
  BVA  - Mayer's bonded valence
  FA   - Mayer's free valence

  ATOM       NA         ZA         QA         VA         BVA        FA
  0 C      6.5094     6.0000    -0.5094     3.4219     3.4219     0.0000
  1 Cl    17.1883    17.0000    -0.1883     1.0276     1.0276     0.0000
  2 H      0.7196     1.0000     0.2804     1.0246     1.0246     0.0000
  3 H      0.7197     1.0000     0.2803     1.0244     1.0244     0.0000
  4 H      0.7311     1.0000     0.2689     1.0606     1.0606     0.0000
  5 O      8.3840     8.0000    -0.3840     2.0788     2.0788    -0.0000
  6 H      0.6413     1.0000     0.3587     0.9350     0.9350     0.0000
  7 H      0.5532     1.0000     0.4468     0.8048     0.8048     0.0000
  8 H      0.5533     1.0000     0.4467     0.8050     0.8050    -0.0000

  Mayer bond orders larger than 0.100000
B(  0-C ,  1-Cl) :   0.6404 B(  0-C ,  2-H ) :   0.9258 B(  0-C ,  3-H ) :   0.9256 
B(  0-C ,  4-H ) :   0.9391 B(  1-Cl,  6-H ) :   0.4108 B(  5-O ,  6-H ) :   0.5301 
B(  5-O ,  7-H ) :   0.8146 B(  5-O ,  8-H ) :   0.8148 

-------
TIMINGS
-------

Total SCF time: 0 days 0 hours 0 min 23 sec 

Total time                  ....      23.047 sec
Sum of individual times     ....      22.829 sec  ( 99.1%)

SCF preparation             ....       0.209 sec  (  0.9%)
Fock matrix formation       ....      21.316 sec  ( 92.5%)
  Startup                   ....       0.138 sec  (  0.6% of F)
  Split-RI-J                ....       0.425 sec  (  2.0% of F)
  Chain of spheres X        ....       9.706 sec  ( 45.5% of F)
  XC integration            ....      10.269 sec  ( 48.2% of F)
    XC Preparation          ....       0.159 sec  (  1.5% of XC)
    XC Prescreening         ....       0.537 sec  (  5.2% of XC)
    Basis function eval.    ....       5.277 sec  ( 51.4% of XC)
    Density eval.           ....       1.024 sec  ( 10.0% of XC)
    XC-Functional eval.     ....       0.165 sec  (  1.6% of XC)
    XC-Potential eval.      ....       2.188 sec  ( 21.3% of XC)
Diagonalization             ....       0.000 sec  (  0.0%)
Density matrix formation    ....       0.458 sec  (  2.0%)
Total Energy calculation    ....       0.104 sec  (  0.5%)
Population analysis         ....       0.044 sec  (  0.2%)
Orbital Transformation      ....       0.132 sec  (  0.6%)
Orbital Orthonormalization  ....       0.000 sec  (  0.0%)
DIIS solution               ....       0.319 sec  (  1.4%)
SOSCF solution              ....       0.248 sec  (  1.1%)
Finished LeanSCF after  23.1 sec

Maximum memory used throughout the entire LEANSCF-calculation: 17.4 MB

-------------------------   --------------------
FINAL SINGLE POINT ENERGY      -576.819517765169
-------------------------   --------------------



           ************************************************************
           *        Program running with 2 parallel MPI-processes     *
           *              working on a common directory               *
           ************************************************************
------------------------------------------------------------------------------
                         ORCA SCF GRADIENT CALCULATION
------------------------------------------------------------------------------

Nuc. rep. gradient        (SHARK) ... done (  0.0 sec)
HCore & Overlap gradient  (SHARK) ... done (  0.0 sec)
Split-RIJ-J gradient      (SHARK) ... done (  0.2 sec)
COSX-gradient                     ... done (  6.1 sec)
XC gradient                       ... done (  0.7 sec)
NL correlation gradient           ... done (  0.7 sec)

------------------
CARTESIAN GRADIENT
------------------

   1   C   :    0.026319641   -0.015934086    0.019372943
   2   Cl  :   -0.039736433    0.023283315   -0.028340100
   3   H   :    0.004586819   -0.002290908    0.003221628
   4   H   :    0.004592186   -0.002700435    0.002870391
   5   H   :    0.004684189   -0.002510984    0.003068117
   6   O   :   -0.000694455    0.001399824   -0.001654166
   7   H   :    0.001929518    0.000792053   -0.000877174
   8   H   :   -0.000876226    0.000880980    0.002797225
   9   H   :   -0.000805239   -0.002919759   -0.000458865

Difference to translation invariance:
           :    0.0000000000    0.0000000000   -0.0000000000

Difference to rotation invariance:
           :   -0.0000298350   -0.0000127617    0.0000088495

Norm of the Cartesian gradient     ...    0.0662282685
RMS gradient                       ...    0.0127456362
MAX gradient                       ...    0.0397364332

-------
TIMINGS
-------

Total SCF gradient time     ....        7.640 sec

Densities                   ....       0.000 sec  (  0.0%)
One electron gradient       ....       0.023 sec  (  0.3%)
RI-J Coulomb gradient       ....       0.163 sec  (  2.1%)
COSX gradient               ....       6.137 sec  ( 80.3%)
XC gradient                 ....       0.653 sec  (  8.5%)
NL correlation gradient     ....       0.663 sec  (  8.7%)

Maximum memory used throughout the entire SCFGRAD-calculation: 23.3 MB
------------------------------------------------------------------------------
                         ORCA GEOMETRY RELAXATION STEP
------------------------------------------------------------------------------

Reading the OPT-File                    .... done
Getting information on internals        .... done
Copying old internal coords+grads       .... done
Making the new internal coordinates     .... (2022 redundants) done
Validating the new internal coordinates .... (2022 redundants) done
Calculating the B-matrix                .... done
Calculating the G,G- and P matrices     .... done
Transforming gradient to internals      .... done
Projecting the internal gradient        .... done
Number of atoms                         ....   9
Number of internal coordinates          ....  25
Current Energy                          ....  -576.819517765 Eh
Current gradient norm                   ....     0.066228269 Eh/bohr
Maximum allowed component of the step   ....  0.300
Current trust radius                    ....  0.300
Evaluating the initial hessian          ....  (Almloef) done
Projecting the Hessian                  .... done
Forming the augmented Hessian           .... done
Diagonalizing the augmented Hessian     .... done
Last element of RFO vector              ....  0.998790036
Lowest eigenvalues of augmented Hessian:
 -0.000798412  0.001935156  0.005620751  0.059310031  0.138244053
Length of the computed step             ....  0.049237455
The final length of the internal step   ....  0.049237455
Converting the step to Cartesian space:
 Initial RMS(Int)=    0.0098474909
Transforming coordinates:
 Iter   0:  RMS(Cart)=    0.0152572753 RMS(Int)=    0.0099516239
Imposing constraints:
 Iter   0:  RMS(Cart)=    0.0000000001 RMS(Int)=    0.0000000000
CONVERGED
done
Storing new coordinates                 .... done

                                .--------------------.
          ----------------------|Geometry convergence|-------------------------
          Item                value                   Tolerance       Converged
          ---------------------------------------------------------------------
          RMS gradient        0.0032704704            0.0001000000      NO
          MAX gradient        0.0065913658            0.0003000000      NO
          RMS step            0.0098474909            0.0020000000      NO
          MAX step            0.0198675882            0.0040000000      NO
          ........................................................
          Max(Bonds)      0.0037      Max(Angles)    1.14
          Max(Dihed)        0.11      Max(Improp)    0.00
          ---------------------------------------------------------------------

The optimization has not yet converged - more geometry cycles are needed


    ---------------------------------------------------------------------------
                         Redundant Internal Coordinates
                            (Angstroem and degrees)

        Definition                    Value    dE/dq     Step     New-Value
    ----------------------------------------------------------------------------
     1. B(Cl  1,C   0)                1.7000 -0.054569 -0.0000    1.7000 C 
     2. B(H   2,C   0)                1.0816 -0.001967  0.0028    1.0844   
     3. B(H   3,C   0)                1.0816 -0.001964  0.0028    1.0844   
     4. B(H   4,C   0)                1.0823 -0.001911  0.0027    1.0850   
     5. B(H   6,Cl  1)                1.8010 -0.000275  0.0024    1.8034   
     6. B(H   6,O   5)                1.0587 -0.002553  0.0037    1.0625   
     7. B(H   7,O   5)                0.9705 -0.003059  0.0032    0.9737   
     8. B(H   8,O   5)                0.9705 -0.003063  0.0032    0.9737   
     9. A(Cl  1,C   0,H   4)          105.24 -0.006591    1.14    106.38   
    10. A(Cl  1,C   0,H   3)          107.97 -0.006394    1.14    109.10   
    11. A(H   3,C   0,H   4)          111.29  0.005938   -1.07    110.21   
    12. A(Cl  1,C   0,H   2)          107.96 -0.006391    1.14    109.09   
    13. A(H   2,C   0,H   3)          112.70  0.005697   -0.95    111.75   
    14. A(H   2,C   0,H   4)          111.30  0.005940   -1.07    110.22   
    15. A(C   0,Cl  1,H   6)          108.45 -0.001502    0.31    108.77   
    16. A(H   6,O   5,H   8)          113.96 -0.000126    0.03    113.98   
    17. A(H   7,O   5,H   8)          111.46  0.000064   -0.01    111.45   
    18. A(H   6,O   5,H   7)          113.98 -0.000115    0.03    114.00   
    19. A(Cl  1,H   6,O   5)          171.76  0.000041   -0.01    171.75   
    20. D(H   6,Cl  1,C   0,H   3)    -60.85  0.000316   -0.08    -60.93   
    21. D(H   6,Cl  1,C   0,H   4)   -179.79 -0.000000    0.02   -179.78   
    22. D(H   6,Cl  1,C   0,H   2)     61.26 -0.000322    0.11     61.37   
    23. D(O   5,H   6,Cl  1,C   0)    179.69  0.000003   -0.06    179.63   
    24. D(Cl  1,H   6,O   5,H   7)    115.79  0.000069   -0.02    115.77   
    25. D(Cl  1,H   6,O   5,H   8)   -114.74 -0.000066    0.02   -114.72   
    ----------------------------------------------------------------------------

Geometry step timings:
Preparation and reading OPT file:      0.001 s ( 2.112 %)
Internal coordinates            :      0.000 s ( 0.043 %)
B/P matrices and projection     :      0.000 s ( 0.564 %)
Hessian update/contruction      :      0.017 s (47.191 %)
Making the step                 :      0.000 s ( 0.278 %)
Converting the step to Cartesian:      0.000 s ( 0.077 %)
Storing new data                :      0.012 s (32.832 %)
Checking convergence            :      0.000 s ( 0.006 %)
Final printing                  :      0.006 s (16.888 %)
Total time                      :      0.035 s

Time for energy+gradient        :     32.639 s
Time for complete geometry iter :     33.300 s

         *************************************************************
         *                GEOMETRY OPTIMIZATION CYCLE   2            *
         *************************************************************
---------------------------------
CARTESIAN COORDINATES (ANGSTROEM)
---------------------------------
  C      0.853607    0.110348   -0.061599
  Cl     2.099718   -0.623904    0.831755
  H      0.941811   -0.184409   -1.101474
  H      0.918153    1.186273    0.057718
  H     -0.078465   -0.257495    0.354457
  O      4.683582    0.200159   -0.072703
  H      3.686154   -0.049466    0.195000
  H      4.937496   -0.088033   -0.967464
  H      4.911943    1.134538    0.078661

----------------------------
CARTESIAN COORDINATES (A.U.)
----------------------------
  NO LB      ZA    FRAG     MASS         X           Y           Z
   0 C     6.0000    0    12.011    1.613084    0.208528   -0.116405
   1 Cl   17.0000    0    35.453    3.967892   -1.179008    1.571789
   2 H     1.0000    0     1.008    1.779766   -0.348482   -2.081485
   3 H     1.0000    0     1.008    1.735058    2.241731    0.109071
   4 H     1.0000    0     1.008   -0.148278   -0.486596    0.669826
   5 O     8.0000    0    15.999    8.850687    0.378245   -0.137389
   6 H     1.0000    0     1.008    6.965822   -0.093478    0.368496
   7 H     1.0000    0     1.008    9.330515   -0.166358   -1.828242
   8 H     1.0000    0     1.008    9.282228    2.143966    0.148647

--------------------------------
INTERNAL COORDINATES (ANGSTROEM)
--------------------------------
 C      0   0   0     0.000000000000     0.00000000     0.00000000
 Cl     1   0   0     1.700000001235     0.00000000     0.00000000
 H      1   2   0     1.084436361550   109.08020541     0.00000000
 H      1   2   3     1.084443126700   109.09121742   237.69756857
 H      1   2   3     1.084974778598   106.36515351   118.85035219
 O      2   1   3     2.858928911722   111.82279801    61.39470778
 H      6   2   1     1.062468106082     5.19399752   359.62076998
 H      6   2   1     0.973716556902   116.17264585   293.17479165
 H      6   2   1     0.973717192760   116.06433327    67.12242896

---------------------------
INTERNAL COORDINATES (A.U.)
---------------------------
 C      0   0   0     0.000000000000     0.00000000     0.00000000
 Cl     1   0   0     3.212534430000     0.00000000     0.00000000
 H      1   2   0     2.049287732996   109.08020541     0.00000000
 H      1   2   3     2.049300517277   109.09121742   237.69756857
 H      1   2   3     2.050305193761   106.36515351   118.85035219
 O      2   1   3     5.402592679504   111.82279801    61.39470778
 H      6   2   1     2.007773746521     5.19399752   359.62076998
 H      6   2   1     1.840057624609   116.17264585   293.17479165
 H      6   2   1     1.840058826207   116.06433327    67.12242896



           ************************************************************
           *        Program running with 2 parallel MPI-processes     *
           *              working on a common directory               *
           ************************************************************
------------------------------------------------------------------------------
                   ___                                                        
                  /   \      - P O W E R E D   B Y -                         
                 /     \                                                     
                 |  |  |   _    _      __       _____    __    __             
                 |  |  |  | |  | |    /  \     |  _  \  |  |  /  |          
                  \  \/   | |  | |   /    \    | | | |  |  | /  /          
                 / \  \   | |__| |  /  /\  \   | |_| |  |  |/  /          
                |  |  |   |  __  | /  /__\  \  |    /   |      \           
                |  |  |   | |  | | |   __   |  |    \   |  |\   \          
                \     /   | |  | | |  |  |  |  | |\  \  |  | \   \       
                 \___/    |_|  |_| |__|  |__|  |_| \__\ |__|  \__/        
                                                                              
                      - O R C A' S   B I G   F R I E N D -                    
                                      &                                       
                       - I N T E G R A L  F E E D E R -                       
                                                                              
 v1 FN, 2020, v2 2021, v3 2022-2024                                           
------------------------------------------------------------------------------


----------------------
SHARK INTEGRAL PACKAGE
----------------------

Number of atoms                             ...      9
Number of basis functions                   ...    177
Number of shells                            ...     73
Maximum angular momentum                    ...      3
Integral batch strategy                     ... SHARK/LIBINT Hybrid
RI-J (if used) integral strategy            ... SPLIT-RIJ (Revised 2003 algorithm where possible)
Printlevel                                  ...      1
Contraction scheme used                     ... SEGMENTED contraction
Prescreening option                         ... SCHWARTZ
   Thresh                                   ... 2.500e-11
   Tcut                                     ... 2.500e-12
   Tpresel                                  ... 2.500e-12 
Coulomb Range Separation                    ... NOT USED
Exchange Range Separation                   ... Long Range
   Mu parameter                             ... 3.000e-01
   Scaling (regular/separated)              ... 1.500e-01 8.500e-01
Multipole approximations                    ... NOT USED
Finite Nucleus Model                        ... NOT USED
CABS basis                                  ... NOT available
Auxiliary Coulomb fitting basis             ... AVAILABLE
   # of basis functions in Aux-J            ...    215
   # of shells in Aux-J                     ...     77
   Maximum angular momentum in Aux-J        ...      4
Auxiliary J/K fitting basis                 ... NOT available
Auxiliary Correlation fitting basis         ... NOT available
Auxiliary 'external' fitting basis          ... NOT available

Checking pre-screening integrals            ... done (  0.0 sec) Dimension = 73
Check shell pair data                       ... done (  0.0 sec)
Shell pair information
Shell pair cut-off parameter TPreSel        ...   2.5e-12
Total number of shell pairs                 ...      2701
Shell pairs after pre-screening             ...      2569
Total number of primitive shell pairs       ...      7001
Primitive shell pairs kept                  ...      5527
          la=0 lb=0:    619 shell pairs
          la=1 lb=0:    854 shell pairs
          la=1 lb=1:    319 shell pairs
          la=2 lb=0:    310 shell pairs
          la=2 lb=1:    218 shell pairs
          la=2 lb=2:     44 shell pairs
          la=3 lb=0:     99 shell pairs
          la=3 lb=1:     73 shell pairs
          la=3 lb=2:     27 shell pairs
          la=3 lb=3:      6 shell pairs

Calculating one electron integrals          ... done (  0.0 sec)
Calculating RI/J V-Matrix + Cholesky decomp.... done (  0.0 sec)
Calculating Nuclear repulsion               ... done (  0.0 sec) ENN=    115.834427410573 Eh

Diagonalization of the overlap matrix:
Smallest eigenvalue                        ... 3.381e-05
Time for diagonalization                   ...    0.002 sec
Threshold for overlap eigenvalues          ... 1.000e-07
Number of eigenvalues below threshold      ... 0
Time for construction of square roots      ...    0.008 sec
Total time needed                          ...    0.016 sec

-------------------
DFT GRID GENERATION
-------------------

General Integration Accuracy     IntAcc      ... 4.388
Radial Grid Type                 RadialGrid  ... OptM3 with GC (2021)
Angular Grid (max. ang.)         AngularGrid ... 4 (Lebedev-302)
Angular grid pruning method      GridPruning ... 4 (adaptive)
Weight generation scheme         WeightScheme... mBecke (2022)
Basis function cutoff            BFCut       ... 1.0000e-11
Integration weight cutoff        WCut        ... 1.0000e-14
Partially contracted basis set               ... off
Rotationally invariant grid construction     ... off
Angular grids for H and He will be reduced by one unit
Diffuse basis detected: some atoms will have their outermost
                        angular grid increased by 1.

Total number of grid points                  ...    41372
Total number of batches                      ...      654
Average number of points per batch           ...       63
Average number of grid points per atom       ...     4597

------------------
NL GRID GENERATION
------------------

General Integration Accuracy     IntAcc      ... 4.004
Radial Grid Type                 RadialGrid  ... OptM3 with GC (2021)
Angular Grid (max. ang.)         AngularGrid ... 2 (Lebedev-110)
Angular grid pruning method      GridPruning ... 4 (adaptive)
Weight generation scheme         WeightScheme... mBecke (2022)
Basis function cutoff            BFCut       ... 1.0000e-10
Integration weight cutoff        WCut        ... 1.0000e-14
Partially contracted basis set               ... off
Rotationally invariant grid construction     ... off
Angular grids for H and He will be reduced by one unit
Diffuse basis detected: some atoms will have their outermost
[...]
Integration weight cutoff        WCut        ... 1.0000e-14
Partially contracted basis set               ... on
Rotationally invariant grid construction     ... off
Angular grids for H and He will be reduced by one unit
Diffuse basis detected: some atoms will have their outermost
                        angular grid increased by 1.

Total number of grid points                  ...     6446
Total number of batches                      ...       55
Average number of points per batch           ...      117
Average number of grid points per atom       ...      716
UseSFitting                                  ... on

GRIDX 2
-------
General Integration Accuracy     IntAcc      ... 4.020
Radial Grid Type                 RadialGrid  ... OptM3 with GC (2021)
Angular Grid (max. ang.)         AngularGrid ... 2 (Lebedev-110)
Angular grid pruning method      GridPruning ... 4 (adaptive)
Weight generation scheme         WeightScheme... mBecke (2022)
Basis function cutoff            BFCut       ... 1.0000e-11
Integration weight cutoff        WCut        ... 1.0000e-14
Partially contracted basis set               ... on
Rotationally invariant grid construction     ... off
Angular grids for H and He will be reduced by one unit
Diffuse basis detected: some atoms will have their outermost
                        angular grid increased by 1.

Total number of grid points                  ...    12084
Total number of batches                      ...       98
Average number of points per batch           ...      123
Average number of grid points per atom       ...     1343
UseSFitting                                  ... on

GRIDX 3
-------
General Integration Accuracy     IntAcc      ... 4.338
Radial Grid Type                 RadialGrid  ... OptM3 with GC (2021)
Angular Grid (max. ang.)         AngularGrid ... 3 (Lebedev-194)
Angular grid pruning method      GridPruning ... 4 (adaptive)
Weight generation scheme         WeightScheme... mBecke (2022)
Basis function cutoff            BFCut       ... 1.0000e-11
Integration weight cutoff        WCut        ... 1.0000e-14
Partially contracted basis set               ... on
Rotationally invariant grid construction     ... off
Angular grids for H and He will be reduced by one unit
Diffuse basis detected: some atoms will have their outermost
                        angular grid increased by 1.

Total number of grid points                  ...    28288
Total number of batches                      ...      226
Average number of points per batch           ...      125
Average number of grid points per atom       ...     3143
UseSFitting                                  ... on
Initializing property integral containers    ... done (  0.0 sec)

SHARK setup successfully completed in   0.7 seconds

Maximum memory used throughout the entire STARTUP-calculation: 18.0 MB


           ************************************************************
           *        Program running with 2 parallel MPI-processes     *
           *              working on a common directory               *
           ************************************************************
             **** ENERGY FILE WAS UPDATED (orca.en.tmp) ****
Finished Guess after   0.3 sec
Maximum memory used throughout the entire GUESS-calculation: 12.1 MB


           ************************************************************
           *        Program running with 2 parallel MPI-processes     *
           *              working on a common directory               *
           ************************************************************
----------------------------------------D-I-I-S--------------------------------------------
Iteration    Energy (Eh)           Delta-E    RMSDP     MaxDP     DIISErr   Damp  Time(sec)
-------------------------------------------------------------------------------------------
               ***  Starting incremental Fock matrix formation  ***
    1    -574.3057218717332262     0.00e+00  7.80e-04  2.95e-02  8.05e-02  0.700   2.3
    2    -574.3122298223332791    -6.51e-03  6.68e-04  2.54e-02  5.64e-02  0.700   1.8
                               ***Turning on AO-DIIS***
    3    -574.3171686352570759    -4.94e-03  5.51e-04  2.21e-02  3.95e-02  0.700   1.8
    4    -574.3208356510142494    -3.67e-03  1.38e-03  5.70e-02  2.77e-02  0.000   1.8
                              *** Initializing SOSCF ***
---------------------------------------S-O-S-C-F--------------------------------------
Iteration    Energy (Eh)           Delta-E    RMSDP     MaxDP     MaxGrad    Time(sec)
--------------------------------------------------------------------------------------
    5    -574.3304876492591120    -9.65e-03  1.06e-04  3.68e-03  1.49e-03     1.8
               *** Restarting incremental Fock matrix formation ***
    6    -574.3305754262927394    -8.78e-05  7.04e-05  1.98e-03  1.41e-03     2.2
    7    -574.3306059810170154    -3.06e-05  5.88e-05  1.83e-03  5.76e-04     2.0
    8    -574.3306108900321760    -4.91e-06  9.43e-06  3.36e-04  3.62e-04     2.0
    9    -574.3306124638266965    -1.57e-06  3.51e-06  9.82e-05  7.70e-05     2.0
   10    -574.3306125379560854    -7.41e-08  1.59e-06  4.21e-05  2.58e-05     1.9
   11    -574.3306125475937733    -9.64e-09  5.80e-07  1.51e-05  7.89e-06     1.7
                 **** Energy Check signals convergence ****

               *****************************************************
               *                     SUCCESS                       *
               *           SCF CONVERGED AFTER  11 CYCLES          *
               *****************************************************

Recomputing exchange energy using gridx3       ... done (    2.117 sec)
Old exchange energy                            :    -11.460791371 Eh
New exchange energy                            :    -11.460760769 Eh
Exchange energy change after final integration :      0.000030602 Eh
Total energy after final integration           :   -574.330581946 Eh
             **** ENERGY FILE WAS UPDATED (orca.en.tmp) ****

----------------
TOTAL SCF ENERGY
----------------

Total Energy       :       -574.33058194606963 Eh          -15628.32966 eV

Components:
Nuclear Repulsion  :        140.86386385228579 Eh            3833.10061 eV
Electronic Energy  :       -715.34493658420502 Eh          -19465.52533 eV
One Electron Energy:      -1057.19993301354248 Eh          -28767.87271 eV
Two Electron Energy:        341.85499642933746 Eh            9302.34738 eV

Virial components:
Potential Energy   :      -1157.92801976159376 Eh          -31508.82330 eV
Kinetic Energy     :        583.59743781552413 Eh           15880.49363 eV
Virial Ratio       :          1.98412115052434

DFT components:
N(Alpha)           :       18.000001791073 electrons
N(Beta)            :       18.000001791073 electrons
N(Total)           :       36.000003582146 electrons
NL Energy, E(C,NL) :        0.150460184325 Eh       
E(XC)              :      -33.626258335632 Eh       

---------------
SCF CONVERGENCE
---------------

  Last Energy change         ...    9.6377e-09  Tolerance :   1.0000e-08
  Last MAX-Density change    ...    1.5057e-05  Tolerance :   1.0000e-07
  Last RMS-Density change    ...    5.8022e-07  Tolerance :   5.0000e-09
  Last DIIS Error            ...    1.4947e-03  Tolerance :   5.0000e-07
  Last Orbital Gradient      ...    7.8864e-06  Tolerance :   1.0000e-05
  Last Orbital Rotation      ...    1.5264e-05  Tolerance :   1.0000e-05


----------------------
UHF SPIN CONTAMINATION
----------------------

Warning: in a DFT calculation there is little theoretical justification to 
         calculate <S**2> as in Hartree-Fock theory. We will do it anyways
         but you should keep in mind that the values have only limited relevance

Expectation value of <S**2>     :    -0.000000
Ideal value S*(S+1) for S=0.0   :     0.000000
Deviation                       :    -0.000000

Total SCF time: 0 days 0 hours 0 min 23 sec 
Finished LeanSCF after  24.3 sec

Maximum memory used throughout the entire LEANSCF-calculation: 34.4 MB

-------------------------   --------------------
FINAL SINGLE POINT ENERGY      -574.330581946070
-------------------------   --------------------



           ************************************************************
           *        Program running with 2 parallel MPI-processes     *
           *              working on a common directory               *
           ************************************************************
------------------------------------------------------------------------------
                         ORCA SCF GRADIENT CALCULATION
------------------------------------------------------------------------------

Nuc. rep. gradient        (SHARK) ... done (  0.0 sec)
HCore & Overlap gradient  (SHARK) ... done (  0.0 sec)
Split-RIJ-J gradient      (SHARK) ... done (  0.2 sec)
COSX-gradient                     ... done (  5.6 sec)
XC gradient                       ... done (  0.6 sec)
NL correlation gradient           ... done (  0.7 sec)

------------------
CARTESIAN GRADIENT
------------------

   1   C   :    5.951438052   -1.788299417    1.421153385
   2   Cl  :   -5.929621460    1.849062582   -1.493348934
   3   H   :    0.005719407   -0.008369643    0.002317174
   4   H   :    0.070613175   -0.025325153    0.017808314
   5   H   :   -0.005310819    0.009584868   -0.000458672
   6   O   :    0.023399476    0.010623218   -0.047589839
   7   H   :   -0.094548001   -0.038209655    0.053828997
   8   H   :   -0.019843319   -0.000291937    0.030746226
   9   H   :   -0.001846509   -0.008774864    0.015543348

Difference to translation invariance:
           :    0.0000000003   -0.0000000000    0.0000000000

Difference to rotation invariance:
           :    0.0000577716    0.0002148966   -0.0001015291

Norm of the Cartesian gradient     ...    9.0261230393
RMS gradient                       ...    1.7370781888
MAX gradient                       ...    5.9514380516

-------
TIMINGS
-------

Total SCF gradient time     ....        7.118 sec

Densities                   ....       0.000 sec  (  0.0%)
One electron gradient       ....       0.025 sec  (  0.4%)
RI-J Coulomb gradient       ....       0.172 sec  (  2.4%)
COSX gradient               ....       5.637 sec  ( 79.2%)
XC gradient                 ....       0.595 sec  (  8.4%)
NL correlation gradient     ....       0.688 sec  (  9.7%)

Maximum memory used throughout the entire SCFGRAD-calculation: 23.0 MB
------------------------------------------------------------------------------
                         ORCA GEOMETRY RELAXATION STEP
------------------------------------------------------------------------------

Reading the OPT-File                    .... done
Getting information on internals        .... done
Copying old internal coords+grads       .... done
Making the new internal coordinates     .... (2022 redundants) done
Validating the new internal coordinates .... (2022 redundants) done
Calculating the B-matrix                .... done
Calculating the G,G- and P matrices     .... done
Transforming gradient to internals      .... done
Projecting the internal gradient        .... done
Number of atoms                         ....   9
Number of internal coordinates          ....  48
Current Energy                          ....  -574.330581946 Eh
Current gradient norm                   ....     9.026123039 Eh/bohr
Maximum allowed component of the step   ....  0.300
Current trust radius                    ....  0.467
Updating the Hessian (BFGS)             .... done
Forming the augmented Hessian           .... done
Diagonalizing the augmented Hessian     .... done
Last element of RFO vector              ....  0.925102781
Lowest eigenvalues of augmented Hessian:
 -0.049734541  0.000016270  0.001117681  0.002576964  0.006791610
Length of the computed step             ....  0.410459036
The final length of the internal step   ....  0.400445721
Converting the step to Cartesian space:
 Initial RMS(Int)=    0.0577993613
Transforming coordinates:
 Iter   0:  RMS(Cart)=    0.0836077759 RMS(Int)=    0.0588804995
 Iter   5:  RMS(Cart)=    0.0004717178 RMS(Int)=    0.0034059701
 Iter  10:  RMS(Cart)=    0.0001316948 RMS(Int)=    0.0009508304
 Iter  15:  RMS(Cart)=    0.0000367586 RMS(Int)=    0.0002654074
 Iter  20:  RMS(Cart)=    0.0000102611 RMS(Int)=    0.0000740871
 Iter  25:  RMS(Cart)=    0.0000028643 RMS(Int)=    0.0000206808
 Iter  30:  RMS(Cart)=    0.0000007995 RMS(Int)=    0.0000057729
 Iter  35:  RMS(Cart)=    0.0000002232 RMS(Int)=    0.0000016115
Imposing constraints:
 Iter   0:  RMS(Cart)=    0.0000000001 RMS(Int)=    0.0000000000
CONVERGED
done
Storing new coordinates                 .... done
The predicted energy change is          ....    -0.028799416
Previously predicted energy change      ....    -0.004408108
Actually observed energy change         ....     0.024825709
Ratio of predicted to observed change   ....     5.631829222
New trust radius                        ....     0.311111111

                                .--------------------.
          ----------------------|Geometry convergence|-------------------------
          Item                value                   Tolerance       Converged
          ---------------------------------------------------------------------
          Energy change       0.0248257090            0.0000050000      NO
          RMS gradient        0.0203330278            0.0001000000      NO
          MAX gradient        0.1122215906            0.0003000000      NO
          RMS step            0.0577993613            0.0020000000      NO
          MAX step            0.3000000000            0.0040000000      NO
          ........................................................
          Max(Bonds)      0.1588      Max(Angles)    4.75
          Max(Dihed)        3.21      Max(Improp)    0.00
          ---------------------------------------------------------------------

The optimization has not yet converged - more geometry cycles are needed


    ---------------------------------------------------------------------------
                         Redundant Internal Coordinates
                            (Angstroem and degrees)

        Definition                    Value    dE/dq     Step     New-Value
    ----------------------------------------------------------------------------
     1. B(Cl  1,C   0)                0.8273 -6.452146 -0.0000    0.8273 C 
     2. B(H   2,C   0)                2.8241 -0.002014 -0.0109    2.8133   
     3. B(H   3,C   0)                0.9709 -0.066438  0.0616    1.0325   
     4. B(H   4,H   3)                2.3832  0.006951  0.0092    2.3924   
     5. B(H   4,C   0)                2.7879 -0.009017 -0.0080    2.7799   
     6. B(H   4,H   2)                0.7585  0.008516 -0.0035    0.7550   
     7. B(H   6,O   5)                2.2339  0.010261 -0.0534    2.1805   
     8. B(H   6,Cl  1)                1.2176 -0.112222  0.1588    1.3764   
     9. B(H   7,H   6)                2.8934 -0.009038 -0.0066    2.8869   
    10. B(H   7,O   5)                0.9294 -0.027227  0.0290    0.9584   
    11. B(H   8,O   5)                0.9718  0.012287 -0.0107    0.9611   
    12. A(H   2,C   0,H   3)           68.36  0.000668    1.92     70.28   
    13. A(Cl  1,C   0,H   3)          175.76 -0.004001    3.33    179.09   
    14. A(H   3,C   0,H   4)           55.89 -0.000605    1.96     57.85   
    15. A(H   2,C   0,H   4)           15.52  0.001844   -0.04     15.48   
    16. A(Cl  1,C   0,H   4)          122.39 -0.001028    0.06    122.45   
    17. A(Cl  1,C   0,H   2)          109.28 -0.002960   -0.74    108.54   
    18. A(C   0,Cl  1,H   6)          119.63 -0.024333    2.08    121.72   
    19. A(C   0,H   2,H   4)           79.53 -0.005481   -0.66     78.87   
    20. A(C   0,H   3,H   4)          104.39  0.014280   -3.85    100.54   
    21. A(H   2,H   4,H   3)          100.22 -0.007324    1.80    102.02   
    22. A(C   0,H   4,H   2)           84.95  0.003638    0.70     85.66   
    23. A(C   0,H   4,H   3)           19.71 -0.013675    1.89     21.61   
    24. A(H   7,O   5,H   8)          113.20  0.009833   -4.75    108.45   
    25. A(H   6,O   5,H   7)          127.33  0.002349    2.29    129.62   
    26. A(H   6,O   5,H   8)          116.02 -0.012569    2.47    118.49   
    27. A(Cl  1,H   6,H   7)          155.25  0.000968    1.10    156.35   
    28. A(O   5,H   6,H   7)           14.80 -0.004132   -0.12     14.68   
    29. A(O   5,H   7,H   6)           37.87  0.001783   -2.17     35.70   
    30. D(H   6,Cl  1,C   0,H   2)     81.58  0.000604    0.32     81.90   
    31. D(H   6,Cl  1,C   0,H   4)     72.32  0.000313   -0.84     71.47   
    32. D(H   6,Cl  1,C   0,H   3)    137.14 -0.000999    3.21    140.36   
    33. D(H   4,H   2,C   0,Cl  1)   -149.45 -0.002480    0.18   -149.27   
    34. D(H   4,H   2,C   0,H   3)     34.31  0.000978    0.08     34.39   
    35. D(H   4,H   3,C   0,Cl  1)    -67.37 -0.001066   -2.97    -70.33   
    36. D(H   4,H   3,C   0,H   2)    -10.49 -0.001571    0.79     -9.70   
    37. D(H   2,H   4,C   0,Cl  1)     34.62 -0.002636    1.35     35.97   
    38. D(H   2,H   4,C   0,H   3)   -140.75  0.001723   -0.34   -141.09   
    39. D(H   3,H   4,C   0,Cl  1)    175.37 -0.004358    1.69    177.06   
    40. D(H   3,H   4,C   0,H   2)    140.75 -0.001723    0.34    141.09   
    41. D(H   3,H   4,H   2,C   0)    -12.53  0.008304   -0.89    -13.41   
    42. D(H   2,H   4,H   3,C   0)     39.82  0.000925    0.35     40.17   
    43. D(H   7,O   5,Cl  1,C   0)    -12.13  0.003194   -3.19    -15.33   
    44. D(H   8,O   5,Cl  1,C   0)   -160.15 -0.004472   -0.64   -160.79   
    45. D(H   7,H   6,Cl  1,C   0)   -121.10  0.001247    2.49   -118.61   
    46. D(H   7,H   6,O   5,H   8)   -157.46 -0.000516    0.24   -157.22   
    47. D(H   6,H   7,O   5,H   8)    157.99 -0.003682    0.34    158.33   
    48. D(O   5,H   7,H   6,Cl  1)    -70.51  0.000879   -2.96    -73.47   
    ----------------------------------------------------------------------------

Geometry step timings:
Preparation and reading OPT file:      0.002 s ( 7.009 %)
Internal coordinates            :      0.000 s ( 0.079 %)
B/P matrices and projection     :      0.000 s ( 1.184 %)
Hessian update/contruction      :      0.011 s (53.316 %)
Making the step                 :      0.000 s ( 0.779 %)
Converting the step to Cartesian:      0.000 s ( 0.410 %)
Storing new data                :      0.002 s ( 9.089 %)
Checking convergence            :      0.000 s ( 0.037 %)
Final printing                  :      0.006 s (28.068 %)
Total time                      :      0.021 s

Time for energy+gradient        :     33.546 s
Time for complete geometry iter :     33.955 s




    ----------------------------------------------------------------------------
                                  WARNING !!!
       The optimization did not converge but reached the maximum number of
       optimization cycles.
       Please check your results very carefully.
    ----------------------------------------------------------------------------



Storing optimized geometry in orca.009.xyz ... failed!
Storing optimized geometry and energy in orca.xyzall ... failed!
Storing actual gbw-file in orca.009.gbw ... failed!


           ************************************************************
           *        Program running with 2 parallel MPI-processes     *
           *              working on a common directory               *
           ************************************************************
ERROR (SHARK): Failed to read input file (orca.SHARKINP.tmp)
ERROR (SHARK): Failed to read input file (orca.SHARKINP.tmp)

ORCA finished by error termination in PROPERTIES
Calling Command: mpirun -np 2  /opt/crc/orca/orca_6_0_1_linux_x86-64_shared_openmpi416/orca_prop_mpi orca.propinp.tmp orca 2 orca 
[file orca_tools/qcmsg.cpp, line 394]: 
  .... aborting the run

