
                                 *****************
                                 * O   R   C   A *
                                 *****************

                                            #,                                       
                                            ###                                      
                                            ####                                     
                                            #####                                    
                                            ######                                   
                                           ########,                                 
                                     ,,################,,,,,                         
                               ,,#################################,,                 
                          ,,##########################################,,             
                       ,#########################################, ''#####,          
                    ,#############################################,,   '####,        
                  ,##################################################,,,,####,       
                ,###########''''           ''''###############################       
              ,#####''   ,,,,##########,,,,          '''####'''          '####       
            ,##' ,,,,###########################,,,                        '##       
           ' ,,###''''                  '''############,,,                           
         ,,##''                                '''############,,,,        ,,,,,,###''
      ,#''                                            '''#######################'''  
     '                                                          ''''####''''         
             ,#######,   #######,   ,#######,      ##                                
            ,#'     '#,  ##    ##  ,#'     '#,    #''#        ,####,   ,####,        
            ##       ##  ##   ,#'  ##            #'  '#       #'       #'  '#        
            ##       ##  #######   ##           ,######,      #####,   #    #        
            '#,     ,#'  ##    ##  '#,     ,#' ,#      #,     #,   #   #,  ,#        
             '#######'   ##     ##  '#######'  #'      '#     '####' # '####'        



                #########################################################
                #                        -***-                          #
                #          Department of theory and spectroscopy        #
                #                                                       #
                #                      Frank Neese                      #
                #                                                       #
                #     Directorship, Architecture, Infrastructure        #
                #                    SHARK, DRIVERS                     #
                #        Core code/Algorithms in most modules           #
                #                                                       #
                #        Max Planck Institute fuer Kohlenforschung      #
                #                Kaiser Wilhelm Platz 1                 #
                #                 D-45470 Muelheim/Ruhr                 #
                #                      Germany                          #
                #                                                       #
                #                  All rights reserved                  #
                #                        -***-                          #
                #########################################################


                         Program Version 6.0.1  -  RELEASE   -


 With contributions from (in alphabetic order):
[Max-Planck-Institut fuer Kohlenforschung]                               
  Daniel Aravena         : Magnetic Suceptibility                        
  Michael Atanasov       : Ab Initio Ligand Field Theory (pilot matlab implementation)
  Alexander A. Auer      : GIAO ZORA, VPT2 properties, NMR spectrum      
  Ute Becker             : All parallelization in ORCA, NUMFREQ, NUMCALC 
  Giovanni Bistoni       : ED, misc. LED, open-shell LED, HFLD           
  Martin Brehm           : Molecular dynamics                            
  Dmytro Bykov           : pre 5.0 version of the SCF Hessian            
  Marcos Casanova-Páez   : Triplet and SCS-CIS(D). UHF-(DLPNO)-IP/EA/STEOM-CCSD. UHF-CVS-IP/STEOM-CCSD   
  Vijay G. Chilkuri      : MRCI spin determinant printing, contributions to CSF-ICE 
  Pauline Colinet        : FMM embedding                                 
  Dipayan Datta          : RHF DLPNO-CCSD density                        
  Achintya Kumar Dutta   : EOM-CC, STEOM-CC                              
  Nicolas Foglia         : Exact transition moments, OPA infrastructure, MCD improvements    
  Dmitry Ganyushin       : Spin-Orbit,Spin-Spin,Magnetic field MRCI      
  Miquel Garcia-Rates    : C-PCM and meta-GGA Hessian, CCSD/C-PCM, Gaussian charge scheme 
  Tiago L. C. Gouveia    : GS-ROHF, GS-ROCIS                             
  Yang Guo               : DLPNO-NEVPT2, F12-NEVPT2, CIM, IAO-localization        
  Andreas Hansen         : Spin unrestricted coupled pair/coupled cluster methods 
  Ingolf Harden          : AUTO-CI MPn and infrastructure                
  Benjamin Helmich-Paris : MC-RPA, TRAH-(SCF,CASSCF), AVAS, COSX integrals, SCF dyn. polar. 
  Lee Huntington         : MR-EOM, pCC                                   
  Robert Izsak           : Overlap fitted RIJCOSX, COSX-SCS-MP3, EOM     
  Riya Kayal             : Wick's Theorem for AUTO-CI, AUTO-CI UHF-CCSDT 
  Emily Kempfer          : AUTO-CI, RHF CISDT and CCSDT                  
  Christian Kollmar      : KDIIS, OOCD, Brueckner-CCSD(T), CCSD density, CASPT2, CASPT2-K, improved NEVPT2 
  Axel Koslowski         : Symmetry handling                             
  Simone Kossmann        : meta-GGA functionals, TD-DFT gradient, OOMP2, (MP2 Hessian; deprecated post 5.0) 
  Lucas Lang             : DCDCAS                                        
  Marvin Lechner         : AUTO-CI (C++ implementation), FIC-MRCC        
  Spencer Leger          : CASSCF response                               
  Dagmar Lenk            : GEPOL surface, SMD, ORCA-2-JSON               
  Dimitrios Liakos       : Extrapolation schemes; Compound Job, initial MDCI parallelization 
  Dimitrios Manganas     : Further ROCIS development; embedding schemes. LFT, Crystal Embedding 
  Dimitrios Pantazis     : SARC Basis sets                               
  Anastasios Papadopoulos: AUTO-CI, single reference methods and gradients 
  Taras Petrenko         : pre 6.0 DFT Hessian and TD-DFT gradient, (ASA, deprecated), ECA, 1-Electron XAS/XES, NRVS 
  Peter Pinski           : DLPNO-MP2, DLPNO-MP2 Gradient                 
  Christoph Reimann      : Effective Core Potentials                     
  Marius Retegan         : Local ZFS, SOC                                
  Christoph Riplinger    : Optimizer, TS searches, QM/MM, DLPNO-CCSD(T), (RO)-DLPNO pert. Triples 
  Michael Roemelt        : Original ROCIS implementation                 
  Masaaki Saitow         : Open-shell DLPNO-CCSD energy and density      
  Barbara Sandhoefer     : DKH picture change effects                    
  Kantharuban Sivalingam : CASSCF convergence/infrastructure, NEVPT2 and variants, FIC-MRCI 
  Bernardo de Souza      : ESD, SOC TD-DFT                               
  Georgi L. Stoychev     : AutoAux, RI-MP2 NMR, DLPNO-MP2 response, X2C  
  Van Anh Tran           : RI-MP2 g-tensors                              
  Willem Van den Heuvel  : Paramagnetic NMR                              
  Zikuan Wang            : NOTCH, Electric field optimization            
  Frank Wennmohs         : Technical directorship and infrastructure     
  Hang Xu                : AUTO-CI-Response properties                   
                                                                         
[FACCTs GmbH]                                                            
  Markus Bursch, Miquel Garcia-Rates, Christoph Riplinger, Bernardo de Souza, Georgi L. Stoychev 
                                                                 
  APM, Basis sets (HGBS, AHGBS, def-TZVP (Ac-Lr), def2-XVPD (La-Lu)), CI-OPT, improved COSX, DLPNO-Multilevel,           
  DOCKER, DRACO, updates on ESD, GOAT, IRC, LR-CPCM, MBIS, meta-GGA TD-DFT gradient, ML-optimized integration grids, 
  MM, NACMEs, nearIR, NEB, NEB-TS, NL-DFT gradient (VV10), 2- and 3-layer-ONIOM, interface openCOSMO-RS, QMMM,   
  Crystal-QMMM, SF, symmetry and pop. for TD-DFT, r2SCAN hybrids, SOLVATOR                                   
                                                                         
[Other institutions]                                                     
  V. Asgeirsson          : NEB                                           
  Christoph Bannwarth    : sTDA-DFT, sTD-DFT, PBEh-3c, B97-3c, D3        
  Sebastian Ehlert       : rSCAN, r2SCAN, r2SCAN-3c, D4, dhf basis sets  
  Marvin Friede          : D4 for Fr, Ra, Ac-Lr                          
  Lars Goerigk           : TD-DFT with DH, B97 family of functionals     
  Stefan Grimme          : VdW corrections, initial TS optimization, DFT functionals, gCP, sTDA/sTD-DF 
  Waldemar Hujo          : DFT-NL                                        
  H. Jonsson             : NEB                                           
  Holger Kruse           : gCP                                           
  Marcel Mueller         : wB97X-3c, vDZP basis set                      
  Hagen Neugebauer       : wr2SCAN                                       
  Tobias Risthaus        : range-separated hybrid DFT                    
  Lukas Wittmann         : regularized MP2, r2SCAN double-hybrids, wr2SCAN        
                                                                         
We gratefully acknowledge several colleagues who have allowed us to      
interface, adapt or use parts of their codes:                            
  Ed Valeev, F. Pavosevic, A. Kumar             : LibInt (2-el integral package), F12 methods 
  Garnet Chan, S. Sharma, J. Yang, R. Olivares  : DMRG                   
  Ulf Ekstrom                                   : XCFun DFT Library      
  Mihaly Kallay                                 : mrcc  (arbitrary order and MRCC methods)
  Frank Weinhold                                : gennbo (NPA and NBO analysis)           
  Simon Mueller                                 : openCOSMO-RS                            
  Christopher J. Cramer and Donald G. Truhlar   : smd solvation model                     
  S Lehtola, MJT Oliveira, MAL Marques          : LibXC Library                           
  Liviu Ungur et al                             : ANISO software                          


 Your calculation uses the libint2 library for the computation of 2-el integrals
 For citations please refer to: http://libint.valeyev.net

 Your ORCA version has been built with support for libXC version: 6.2.2
 For citations please refer to: https://libxc.gitlab.io

 This ORCA versions uses:
   CBLAS   interface :  Fast vector & matrix operations
   LAPACKE interface :  Fast linear algebra routines
   SCALAPACK package :  Parallel linear algebra routines
   Shared memory     :  Shared parallel matrices
   BLAS/LAPACK       :  OpenBLAS 0.3.27  USE64BITINT DYNAMIC_ARCH NO_AFFINITY Cooperlake SINGLE_THREADED
        Core in use  :  Cooperlake
   Copyright (c) 2011-2014, The OpenBLAS Project


================================================================================

----- Orbital basis set information -----
Your calculation utilizes the basis: def2-TZVPD
   F. Weigend and R. Ahlrichs, Phys. Chem. Chem. Phys. 7, 3297 (2005).
   D. Rappoport and F. Furche, J. Chem. Phys. 133, 134105 (2010)
   D. Rappoport, J. Chem. Phys. 155, 124102 (2021).

================================================================================
                                        WARNINGS
                       Please study these warnings very carefully!
================================================================================


IMPORTANT NOTE: CASSCF must signal convergence for a subsequent CASPT2/NEVPT2! 
                Set maxiter=1 to run CASPT2/NEVPT2 with arbitrary orbitals.


================================================================================
                                       INPUT FILE
================================================================================
NAME = cas.inp
|  1> ! def2-TZVPD moread PAL8
|  2> 
|  3> %moinp "/temp180/bsavoie2/emille35/mlip_alchemy/diatomic_scan/caspt2/nacl/rhf/rhf.gbw"
|  4> 
|  5> %casscf
|  6>     nel = 2
|  7>     norb = 2
|  8>     mult = 1
|  9>     nroots = 1
| 10>     PTMethod FIC_CASPT2
| 11> end
| 12> 
| 13> %paras
| 14>     R = 12.0, 0.8, 112 # start, end, n_steps
| 15> end
| 16> 
| 17> * xyz 0 1
| 18> Na 0 0 0
| 19> Cl {R} 0 0
| 20> *
| 21> 
| 22> # Never forget your bonus lines!!!
| 23> 
| 24>                          ****END OF INPUT****
================================================================================

                       ******************************
                       * Parameter Scan Calculation *
                       ******************************

Trajectory settings:
    -> SCF surface will be mapped
    -> CASPT2 surface(s) will be mapped with 1 roots

There are 1 parameter(s) to be scanned
             R: range=  12.00000000 ..   0.80000000  steps=  112
There will be  112 energy evaluations


         *************************************************************
                                TRAJECTORY STEP   1
                  R  :  12.00000000
         *************************************************************
---------------------------------
CARTESIAN COORDINATES (ANGSTROEM)
---------------------------------
  Na     0.000000    0.000000    0.000000
  Cl    12.000000    0.000000    0.000000

----------------------------
CARTESIAN COORDINATES (A.U.)
----------------------------
  NO LB      ZA    FRAG     MASS         X           Y           Z
   0 Na   11.0000    0    22.990    0.000000    0.000000    0.000000
   1 Cl   17.0000    0    35.453   22.676714    0.000000    0.000000

--------------------------------
INTERNAL COORDINATES (ANGSTROEM)
--------------------------------
 Na     0   0   0     0.000000000000     0.00000000     0.00000000
 Cl     1   0   0    12.000000000000     0.00000000     0.00000000

---------------------------
INTERNAL COORDINATES (A.U.)
---------------------------
 Na     0   0   0     0.000000000000     0.00000000     0.00000000
 Cl     1   0   0    22.676713607055     0.00000000     0.00000000

---------------------
BASIS SET INFORMATION
---------------------
There are 2 groups of distinct atoms

 Group   1 Type Na  : 14s9p3d contracted to 5s5p3d pattern {73211/51111/111}
 Group   2 Type Cl  : 15s10p4d1f contracted to 6s6p3d1f pattern {732111/511111/211/1}

Atom   0Na   basis set group =>   1
Atom   1Cl   basis set group =>   2


           ************************************************************
           *        Program running with 8 parallel MPI-processes     *
           *              working on a common directory               *
           ************************************************************
------------------------------------------------------------------------------
                             ORCA STARTUP CALCULATIONS
------------------------------------------------------------------------------
------------------------------------------------------------------------------
                   ___                                                        
                  /   \      - P O W E R E D   B Y -                         
                 /     \                                                     
                 |  |  |   _    _      __       _____    __    __             
                 |  |  |  | |  | |    /  \     |  _  \  |  |  /  |          
                  \  \/   | |  | |   /    \    | | | |  |  | /  /          
                 / \  \   | |__| |  /  /\  \   | |_| |  |  |/  /          
                |  |  |   |  __  | /  /__\  \  |    /   |      \           
                |  |  |   | |  | | |   __   |  |    \   |  |\   \          
                \     /   | |  | | |  |  |  |  | |\  \  |  | \   \       
                 \___/    |_|  |_| |__|  |__|  |_| \__\ |__|  \__/        
                                                                              
                      - O R C A' S   B I G   F R I E N D -                    
                                      &                                       
                       - I N T E G R A L  F E E D E R -                       
                                                                              
 v1 FN, 2020, v2 2021, v3 2022-2024                                           
------------------------------------------------------------------------------


----------------------
SHARK INTEGRAL PACKAGE
----------------------

Number of atoms                             ...      2
Number of basis functions                   ...     81
Number of shells                            ...     29
Maximum angular momentum                    ...      3
Integral batch strategy                     ... SHARK/LIBINT Hybrid
RI-J (if used) integral strategy            ... SPLIT-RIJ (Revised 2003 algorithm where possible)
Printlevel                                  ...      1
Contraction scheme used                     ... SEGMENTED contraction
Prescreening option                         ... SCHWARTZ
   Thresh                                   ... 1.000e-10
   Tcut                                     ... 1.000e-11
   Tpresel                                  ... 1.000e-11 
Coulomb Range Separation                    ... NOT USED
Exchange Range Separation                   ... NOT USED
Multipole approximations                    ... NOT USED
Finite Nucleus Model                        ... NOT USED
CABS basis                                  ... NOT available
Auxiliary Coulomb fitting basis             ... NOT available
Auxiliary J/K fitting basis                 ... NOT available
Auxiliary Correlation fitting basis         ... NOT available
Auxiliary 'external' fitting basis          ... NOT available

Checking pre-screening integrals            ... done (  0.0 sec) Dimension = 29
Check shell pair data                       ... done (  0.0 sec)
Shell pair information
Shell pair cut-off parameter TPreSel        ...   1.0e-11
Total number of shell pairs                 ...       435
Shell pairs after pre-screening             ...       301
Total number of primitive shell pairs       ...      1667
Primitive shell pairs kept                  ...      1013
          la=0 lb=0:     45 shell pairs
          la=1 lb=0:     87 shell pairs
          la=1 lb=1:     52 shell pairs
          la=2 lb=0:     40 shell pairs
          la=2 lb=1:     44 shell pairs
          la=2 lb=2:     13 shell pairs
          la=3 lb=0:      8 shell pairs
          la=3 lb=1:      8 shell pairs
          la=3 lb=2:      3 shell pairs
          la=3 lb=3:      1 shell pairs

Calculating one electron integrals          ... done (  0.0 sec)
Calculating Nuclear repulsion               ... done (  0.0 sec) ENN=      8.246344829342 Eh

Diagonalization of the overlap matrix:
Smallest eigenvalue                        ... 3.140e-02
Time for diagonalization                   ...    0.001 sec
Threshold for overlap eigenvalues          ... 1.000e-07
Number of eigenvalues below threshold      ... 0
Time for construction of square roots      ...    0.007 sec
Total time needed                          ...    0.013 sec

-------------------
DFT GRID GENERATION
-------------------

General Integration Accuracy     IntAcc      ... 4.388
Radial Grid Type                 RadialGrid  ... OptM3 with GC (2021)
Angular Grid (max. ang.)         AngularGrid ... 4 (Lebedev-302)
Angular grid pruning method      GridPruning ... 4 (adaptive)
Weight generation scheme         WeightScheme... mBecke (2022)
Basis function cutoff            BFCut       ... 1.0000e-10
Integration weight cutoff        WCut        ... 1.0000e-14
Partially contracted basis set               ... off
Rotationally invariant grid construction     ... off
Angular grids for H and He will be reduced by one unit
Diffuse basis detected: some atoms will have their outermost
                        angular grid increased by 1.

Total number of grid points                  ...    15060
Total number of batches                      ...      236
Average number of points per batch           ...       63
Average number of grid points per atom       ...     7530
Initializing property integral containers    ... done (  0.0 sec)

SHARK setup successfully completed in   0.2 seconds

Maximum memory used throughout the entire STARTUP-calculation: 13.8 MB


           ************************************************************
           *        Program running with 8 parallel MPI-processes     *
           *              working on a common directory               *
           ************************************************************
-------------------------------------------------------------------------------
                                 ORCA GUESS
                   Start orbitals & Density for SCF / CASSCF
-------------------------------------------------------------------------------

------------
SCF SETTINGS
------------
Hamiltonian:
 Ab initio Hamiltonian  Method          .... Hartree-Fock(GTOs)


General Settings:
 Integral files         IntName         .... cas
 Hartree-Fock type      HFTyp           .... CASSCF
 Total Charge           Charge          ....    0
 Multiplicity           Mult            ....    1
 Number of Electrons    NEL             ....   28
 Basis Dimension        Dim             ....   81
 Nuclear Repulsion      ENuc            ....      8.2463448293 Eh

---------------------
INITIAL GUESS: MOREAD
---------------------
Guess MOs are being read from file: /temp180/bsavoie2/emille35/mlip_alchemy/diatomic_scan/caspt2/nacl/rhf/rhf.gbw
Input Geometry matches current geometry (good)
Atom 1: N(Shells)= 16 and 17 - projection required
Input basis set needs projection
NBasis(read)= 86
NBasis(calc)= 81
Basis set overlap was calculated
Using GuessMode=CMatrix for the initial guess
Initial orthogonal set was formed
CASSCF - fitting 2 shells:
   closed-shell contains  13 orbitals (  0 ...  12)
   active space contains   2 orbitals ( 13 ...  14)
Virtual orbitals were projected
Gram-Schmidt orthogonalization of all MOs with pivot on actives
Initial density was built
Canonicalizing active space vectors CAS(2,2) {13-14} C(81,81) Active space vectors have been canonicalized
                      ------------------
                      INITIAL GUESS DONE (   0.0 sec)
                      ------------------
================================================================================
                                        WARNING
Check your MOs and check whether a frozen core calculation is appropriate
MO 0 should be a Cl s semi-core orbital but seems to be delocalized with a Na p orbital (63.0% vs. 36.6%)
================================================================================
================================================================================
                                        WARNING
Check your MOs and check whether a frozen core calculation is appropriate
MO 2 should be a Cl s semi-core orbital but seems to be delocalized with a Na s orbital (89.0% vs.  8.6%)
================================================================================
================================================================================
                                        WARNING
Check your MOs and check whether a frozen core calculation is appropriate
MO 0 should be a Cl s semi-core orbital but seems to be delocalized with a Na p orbital (63.0% vs. 36.6%)
================================================================================
================================================================================
                                        WARNING
Check your MOs and check whether a frozen core calculation is appropriate
MO 2 should be a Cl s semi-core orbital but seems to be delocalized with a Na s orbital (89.0% vs.  8.6%)
================================================================================
             **** ENERGY FILE WAS UPDATED (cas.en.tmp) ****
Finished Guess after   0.2 sec
Maximum memory used throughout the entire GUESS-calculation: 5.9 MB


           ************************************************************
           *        Program running with 8 parallel MPI-processes     *
           *              working on a common directory               *
           ************************************************************
-------------------------------------------------------------------------------
                              ORCA-CASSCF
-------------------------------------------------------------------------------

Building the CAS space              ... done (3 configurations for Mult=1)
Memory for address arrays  		      ... done
Make address arrays			      ... done
Memory for buffers 			      ... done
Setting up spin-function prototypes	      ... (MAXOPEN=2) 0 2 4 done
Trivial cases - DOMO's			      ... done (  0.0 MB)
Number of open shells			    ...  0
domo->virtual excitations			... done (  0.0 MB)
domo->somo excitations				... done (  0.0 MB)
somo->virtual excitations			... done (  0.0 MB)
somo->somo excitations				... done (  0.0 MB)
Number of open shells			    ...  2
domo->virtual excitations			... done (  0.0 MB)
domo->somo excitations				... done (  0.0 MB)
somo->virtual excitations			... done (  0.0 MB)
somo->somo excitations				... done (  0.0 MB)
Coupling container construction done

 CASSCF (estimated) memory needed     ... 1.2 MB
 CASPT2 (estimated) memory needed     ... 2.3 MB 


SYSTEM-SPECIFIC SETTINGS:
Number of active electrons          ...    2
Number of active orbitals           ...    2
Total number of electrons           ...   28
Total number of orbitals            ...   81

Determined orbital ranges:
   Internal       0 -   12 (  13 orbitals)
   Active        13 -   14 (   2 orbitals)
   External      15 -   80 (  66 orbitals)
Number of rotation parameters      ...   1016

CI-STEP:
CI strategy                         ... General CI
Number of multiplicity blocks       ...    1
BLOCK  0 WEIGHT=   1.0000
  Multiplicity                      ...    1
  #(Configurations)                 ...    3
  #(CSFs)                           ...    3
  #(Roots)                          ...    1
    ROOT=0 WEIGHT=    1.000000

  PrintLevel                        ...    1
  N(GuessMat)                       ...      2048
  MaxDim(CI)                        ...        10
  MaxIter(CI)                       ...        64
  Energy Tolerance CI               ...  1.00e-08
  Residual Tolerance CI             ...  1.00e-08
  Shift(CI)                         ...  1.00e-04

INTEGRAL-TRANSFORMATION-STEP:
  Algorithm                         ... EXACT

ORBITAL-IMPROVEMENT-STEP:
  Algorithm                         ... SuperCI(PT)
  Default Parametrization           ... CAYLEY
  Act-Act rotations                 ... depends on algorithm used

  Note: SuperCI(PT) will ignore FreezeIE, FreezeAct and FreezeGrad. In general Default settings are encouraged.
        In conjunction with ShiftUp, ShiftDn or GradScaling the performance of SuperCI(PT) is less optimal.  

  MaxRot                            ... 2.00e-01 
  Max. no of vectors (DIIS)         ... 15
  DThresh (cut-off) metric          ... 1.00e-06
  Switch step at gradient           ...  3.00e-02 
  Switch step at iteration          ...        50   
  Switch step to                    ... SuperCI(PT)    

SCF-SETTINGS:
  Incremental                       ... on
  RIJCOSX approximation             ... off
  RI-JK approximation               ... off
  AO integral handling              ... DIRECT
  Integral Neglect Thresh           ...  1.00e-10
  Primitive cutoff TCut             ...  1.00e-11
  Energy convergence tolerance      ...  1.00e-07
  Orbital gradient convergence      ...  1.00e-03
  Max. number of iterations         ...        75  

PT2-SETTINGS:
  A PT2 calculation will be performed on top of the CASSCF wave function (PT2 = CASPT2)   
  CASPT2 Real Levelshift            ...  0.00e+00
  CASPT2 Im.  Levelshift            ...  0.00e+00
  CASPT2 IPEA Levelshift            ...  0.00e+00
 CI step strategy                   ... General CI
  D4C handling                      ... PS approximation (factorized) 
  CI truncation for D4C at          ...  1.00e-12
  CI truncation for D3  at          ...  1.00e-14
  Orbitals                          ... canonical for each state 
  Last  frozen  orbital             ... 5
  First deleted orbital             ... 81

FINAL ORBITALS:
  Active   Orbitals                 ... natural 
  Internal Orbitals                 ... canonical 
  External Orbitals                 ... canonical 

------------------
CAS-SCF ITERATIONS
------------------


MACRO-ITERATION   1: 
   --- Inactive Energy E0 = -620.40262259 Eh
CI-ITERATION   0: 
  -621.279117430   0.000000000000 (    0.01)
   CI-PROBLEM SOLVED
   DENSITIES MADE

                 <<<<<<<<<<<<<<<<<<INITIAL CI STATE CHECK>>>>>>>>>>>>>>>>>>

BLOCK  0 MULT= 1 NROOTS= 1 
ROOT   0:  E=    -621.2791174303 Eh
      1.00000 [     0]: 20

                 <<<<<<<<<<<<<<<<<<INITIAL CI STATE CHECK>>>>>>>>>>>>>>>>>>

   E(CAS)=  -621.279117430 Eh DE=    0.000000e+00
   --- Energy gap subspaces: Ext-Act = 2.164   Act-Int = 1.668
   N(occ)=  2.00000 0.00000
   ||g|| =     1.185569e-04 Max(G)=    3.054192e-05 Rot=48,3
                     ---- THE CAS-SCF GRADIENT HAS CONVERGED ----
                            --- FINALIZING ORBITALS ---
                    ---- DOING ONE FINAL ITERATION FOR PRINTING ----
   --- Canonicalize Internal Space
   --- Canonicalize External Space

MACRO-ITERATION   2: 
   --- Inactive Energy E0 = -620.40262259 Eh
   --- All densities will be recomputed
CI-ITERATION   0: 
  -621.279117430   0.000000000000 (    0.00)
   CI-PROBLEM SOLVED
   DENSITIES MADE
   E(CAS)=  -621.279117430 Eh DE=    4.547474e-13
   --- Energy gap subspaces: Ext-Act = 0.072   Act-Int = -0.000
   N(occ)=  2.00000 0.00000
   ||g|| =     1.185569e-04 Max(G)=   -3.738151e-05 Rot=56,3
--------------
CASSCF RESULTS
--------------

Final CASSCF energy       : -621.279117430 Eh  -16905.8643 eV

----------------
ORBITAL ENERGIES
----------------

  NO   OCC          E(Eh)            E(eV) 
   0   2.0000    -104.548560     -2844.9109 
   1   2.0000     -40.713909     -1107.8818 
   2   2.0000     -10.274792      -279.5913 
   3   2.0000      -7.741149      -210.6474 
   4   2.0000      -7.741145      -210.6473 
   5   2.0000      -7.741145      -210.6473 
   6   2.0000      -3.029984       -82.4501 
   7   2.0000      -1.753241       -47.7081 
   8   2.0000      -1.753241       -47.7081 
   9   2.0000      -1.753209       -47.7072 
  10   2.0000      -0.777775       -21.1643 
  11   2.0000      -0.194512        -5.2930 
  12   2.0000      -0.194396        -5.2898 
  13   2.0000      -0.194396        -5.2898 
  14   0.0000      -0.137556        -3.7431 
  15   0.0000      -0.065980        -1.7954 
  16   0.0000      -0.065980        -1.7954 
  17   0.0000      -0.063958        -1.7404 
  18   0.0000      -0.011806        -0.3213 
  19   0.0000      -0.004303        -0.1171 
  20   0.0000      -0.004303        -0.1171 
  21   0.0000       0.005496         0.1496 
  22   0.0000       0.120300         3.2735 
  23   0.0000       0.120300         3.2735 
  24   0.0000       0.120948         3.2912 
  25   0.0000       0.120948         3.2912 
  26   0.0000       0.121244         3.2992 
  27   0.0000       0.127711         3.4752 
  28   0.0000       0.127711         3.4752 
  29   0.0000       0.130559         3.5527 
  30   0.0000       0.220166         5.9910 
  31   0.0000       0.220507         6.0003 
  32   0.0000       0.220507         6.0003 
  33   0.0000       0.311151         8.4668 
  34   0.0000       0.465927        12.6785 
  35   0.0000       0.466077        12.6826 
  36   0.0000       0.466077        12.6826 
  37   0.0000       0.466693        12.6994 
  38   0.0000       0.466693        12.6994 
  39   0.0000       0.823778        22.4161 
  40   0.0000       0.823778        22.4161 
  41   0.0000       0.824129        22.4257 
  42   0.0000       1.009235        27.4627 
  43   0.0000       1.009235        27.4627 
  44   0.0000       1.009441        27.4683 
  45   0.0000       1.009441        27.4683 
  46   0.0000       1.009518        27.4704 
  47   0.0000       1.047185        28.4953 
  48   0.0000       1.047216        28.4962 
  49   0.0000       1.047216        28.4962 
  50   0.0000       1.047432        28.5021 
  51   0.0000       1.047432        28.5021 
  52   0.0000       1.261991        34.3405 
  53   0.0000       1.265729        34.4422 
  54   0.0000       1.265729        34.4422 
  55   0.0000       1.268048        34.5053 
  56   0.0000       2.513942        68.4078 
  57   0.0000       2.513946        68.4079 
  58   0.0000       2.513946        68.4079 
  59   0.0000       2.514093        68.4120 
  60   0.0000       2.514093        68.4120 
  61   0.0000       2.679085        72.9016 
  62   0.0000       2.679105        72.9022 
  63   0.0000       2.679105        72.9022 
  64   0.0000       2.679165        72.9038 
  65   0.0000       2.679165        72.9038 
  66   0.0000       2.679262        72.9064 
  67   0.0000       2.679262        72.9064 
  68   0.0000       2.875027        78.2335 
  69   0.0000       2.875027        78.2335 
  70   0.0000       2.875563        78.2480 
  71   0.0000       3.595891        97.8492 
  72   0.0000       5.943566       161.7327 
  73   0.0000       5.943566       161.7327 
  74   0.0000       5.943604       161.7337 
  75   0.0000       5.943604       161.7337 
  76   0.0000       5.943618       161.7341 
  77   0.0000      11.792444       320.8887 
  78   0.0000      11.792444       320.8887 
  79   0.0000      11.792929       320.9019 
  80   0.0000      25.380635       690.6422 


---------------------------------------------
CAS-SCF STATES FOR BLOCK  0 MULT= 1 NROOTS= 1
---------------------------------------------

ROOT   0:  E=    -621.2791174303 Eh
      1.00000 [     0]: 20


--------------
DENSITY MATRIX
--------------

                  0          1    
      0       2.000000  -0.000000
      1      -0.000000   0.000000
Trace of the electron density:  2.000000

-----------------
ENERGY COMPONENTS
-----------------

One electron energy          :   -882.228017734 Eh      -24006.6448 eV
Two electron energy          :    252.702555474 Eh        6876.3861 eV
Nuclear repulsion energy     :      8.246344829 Eh         224.3945 eV
                               ----------------
                                 -621.279117430

Kinetic energy               :    621.233085469 Eh       16904.6117 eV
Potential energy             :  -1242.512202899 Eh      -33810.4759 eV
Virial ratio                 :     -2.000074098 
                               ----------------
                                 -621.279117430

Core energy                  :   -620.402622587 Eh   -16882.0136 eV


----------------------------
LOEWDIN ORBITAL-COMPOSITIONS
----------------------------

                      0         1         2         3         4         5   
                 -104.54856 -40.71391 -10.27479  -7.74115  -7.74115  -7.74115
                   2.00000   2.00000   2.00000   2.00000   2.00000   2.00000
                  --------  --------  --------  --------  --------  --------
 0 Na s               0.0     100.0       0.0       0.0       0.0       0.0
 1 Cl s             100.0       0.0     100.0       0.0       0.0       0.0
 1 Cl pz              0.0       0.0       0.0       0.0      76.2      23.8
 1 Cl px              0.0       0.0       0.0     100.0       0.0       0.0
 1 Cl py              0.0       0.0       0.0       0.0      23.8      76.2

                      6         7         8         9        10        11   
                  -3.02998  -1.75324  -1.75324  -1.75321  -0.77778  -0.19451
                   2.00000   2.00000   2.00000   2.00000   2.00000   2.00000
                  --------  --------  --------  --------  --------  --------
 0 Na s             100.0       0.0       0.0       0.0       0.0       0.0
 0 Na pz              0.0      76.2      23.8       0.0       0.0       0.0
 0 Na px              0.0       0.0       0.0     100.0       0.0       0.0
 0 Na py              0.0      23.8      76.2       0.0       0.0       0.0
 1 Cl s               0.0       0.0       0.0       0.0     100.0       0.0
 1 Cl px              0.0       0.0       0.0       0.0       0.0     100.0

                     12        13        14        15        16        17   
                  -0.19440  -0.19440  -0.13756  -0.06598  -0.06598  -0.06396
                   2.00000   2.00000   0.00000   0.00000   0.00000   0.00000
                  --------  --------  --------  --------  --------  --------
 0 Na s               0.0       0.0      99.5       0.0       0.0       1.3
 0 Na pz              0.0       0.0       0.0      75.9      24.1       0.0
 0 Na px              0.0       0.0       0.5       0.0       0.0      98.7
 0 Na py              0.0       0.0       0.0      24.1      75.9       0.0
 1 Cl pz             76.3      23.7       0.0       0.0       0.0       0.0
 1 Cl py             23.7      76.3       0.0       0.0       0.0       0.0

                     18        19        20        21        22        23   
                  -0.01181  -0.00430  -0.00430   0.00550   0.12030   0.12030
                   0.00000   0.00000   0.00000   0.00000   0.00000   0.00000
                  --------  --------  --------  --------  --------  --------
 0 Na s              82.9       0.0       0.0      16.3       0.0       0.0
 0 Na pz              0.0      76.2      23.7       0.0       0.0       0.0
 0 Na px             17.1       0.0       0.0      83.6       0.0       0.0
 0 Na py              0.0      23.7      76.2       0.0       0.0       0.0
 0 Na dz2             0.0       0.0       0.0       0.0       2.7      72.3
 0 Na dyz             0.0       0.0       0.0       0.0      96.4       3.6
 0 Na dx2y2           0.0       0.0       0.0       0.0       0.9      24.1
 1 Cl px              0.0       0.0       0.0       0.1       0.0       0.0

                     24        25        26        27        28        29   
                   0.12095   0.12095   0.12124   0.12771   0.12771   0.13056
                   0.00000   0.00000   0.00000   0.00000   0.00000   0.00000
                  --------  --------  --------  --------  --------  --------
 0 Na pz              0.2       0.6       0.0      75.7      23.6       0.0
 0 Na px              0.0       0.0       0.4       0.0       0.0      98.9
 0 Na py              0.6       0.2       0.0      23.6      75.7       0.0
 0 Na dz2             0.0       0.0      24.9       0.0       0.0       0.1
 0 Na dxz            23.6      75.7       0.0       0.5       0.2       0.0
 0 Na dx2y2           0.0       0.0      74.7       0.0       0.0       0.3
 0 Na dxy            75.7      23.6       0.0       0.2       0.5       0.0
 1 Cl px              0.0       0.0       0.0       0.0       0.0       0.6

                     30        31        32        33        34        35   
                   0.22017   0.22051   0.22051   0.31115   0.46593   0.46608
                   0.00000   0.00000   0.00000   0.00000   0.00000   0.00000
                  --------  --------  --------  --------  --------  --------
 0 Na px              0.7       0.0       0.0       0.0       0.0       0.0
 1 Cl s               0.1       0.0       0.0      99.9       0.0       0.0
 1 Cl pz              0.0      76.1      23.9       0.0       0.0       0.0
 1 Cl px             99.2       0.0       0.0       0.1       0.0       0.0
 1 Cl py              0.0      23.9      76.1       0.0       0.0       0.0
 1 Cl dz2             0.0       0.0       0.0       0.0      25.0       0.0
 1 Cl dxz             0.0       0.0       0.0       0.0       0.0      99.9
 1 Cl dx2y2           0.0       0.0       0.0       0.0      75.0       0.0
 1 Cl dxy             0.0       0.0       0.0       0.0       0.0       0.1

                     36        37        38        39        40        41   
                   0.46608   0.46669   0.46669   0.82378   0.82378   0.82413
                   0.00000   0.00000   0.00000   0.00000   0.00000   0.00000
                  --------  --------  --------  --------  --------  --------
 1 Cl pz              0.0       0.0       0.0      80.3      19.7       0.0
 1 Cl px              0.0       0.0       0.0       0.0       0.0     100.0
 1 Cl py              0.0       0.0       0.0      19.7      80.3       0.0
 1 Cl dz2             0.0      54.5      20.5       0.0       0.0       0.0
 1 Cl dxz             0.1       0.0       0.0       0.0       0.0       0.0
 1 Cl dyz             0.0      27.3      72.7       0.0       0.0       0.0
 1 Cl dx2y2           0.0      18.2       6.8       0.0       0.0       0.0
 1 Cl dxy            99.9       0.0       0.0       0.0       0.0       0.0

                     42        43        44        45        46        47   
                   1.00923   1.00923   1.00944   1.00944   1.00952   1.04718
                   0.00000   0.00000   0.00000   0.00000   0.00000   0.00000
                  --------  --------  --------  --------  --------  --------
 0 Na dz2            20.7      54.3       0.0       0.0      25.0       0.0
 0 Na dxz             0.0       0.0      23.7      76.2       0.0       0.0
 0 Na dyz            72.4      27.6       0.0       0.0       0.0       0.0
 0 Na dx2y2           6.9      18.1       0.0       0.0      75.0       0.0
 0 Na dxy             0.0       0.0      76.2      23.7       0.0       0.0
 1 Cl dz2             0.0       0.0       0.0       0.0       0.0      25.0
 1 Cl dx2y2           0.0       0.0       0.0       0.0       0.0      75.0

                     48        49        50        51        52        53   
                   1.04722   1.04722   1.04743   1.04743   1.26199   1.26573
                   0.00000   0.00000   0.00000   0.00000   0.00000   0.00000
                  --------  --------  --------  --------  --------  --------
 0 Na pz              0.0       0.0       0.0       0.0       0.0      76.3
 0 Na px              0.0       0.0       0.0       0.0      24.3       0.0
 0 Na py              0.0       0.0       0.0       0.0       0.0      23.7
 1 Cl s               0.0       0.0       0.0       0.0      75.7       0.0
 1 Cl dz2             0.0       0.0      54.4      20.6       0.0       0.0
 1 Cl dxz            29.8      70.2       0.0       0.0       0.0       0.0
 1 Cl dyz             0.0       0.0      27.5      72.5       0.0       0.0
 1 Cl dx2y2           0.0       0.0      18.1       6.9       0.0       0.0
 1 Cl dxy            70.2      29.8       0.0       0.0       0.0       0.0

                     54        55        56        57        58        59   
                   1.26573   1.26805   2.51394   2.51395   2.51395   2.51409
                   0.00000   0.00000   0.00000   0.00000   0.00000   0.00000
                  --------  --------  --------  --------  --------  --------
 0 Na pz             23.7       0.0       0.0       0.0       0.0       0.0
 0 Na px              0.0      75.7       0.0       0.0       0.0       0.0
 0 Na py             76.3       0.0       0.0       0.0       0.0       0.0
 1 Cl s               0.0      24.3       0.0       0.0       0.0       0.0
 1 Cl dz2             0.0       0.0      25.0       0.0       0.0      20.1
 1 Cl dxz             0.0       0.0       0.0      76.8      23.2       0.0
 1 Cl dyz             0.0       0.0       0.0       0.0       0.0      73.3
 1 Cl dx2y2           0.0       0.0      75.0       0.0       0.0       6.7
 1 Cl dxy             0.0       0.0       0.0      23.2      76.8       0.0

                     60        61        62        63        64        65   
                   2.51409   2.67909   2.67911   2.67911   2.67916   2.67916
                   0.00000   0.00000   0.00000   0.00000   0.00000   0.00000
                  --------  --------  --------  --------  --------  --------
 1 Cl dz2            54.9       0.0       0.0       0.0       0.0       0.0
 1 Cl dyz            26.7       0.0       0.0       0.0       0.0       0.0
 1 Cl dx2y2          18.3       0.0       0.0       0.0       0.0       0.0
 1 Cl f0              0.0       0.0       8.6      28.9       0.0       0.0
 1 Cl f+1             0.0      37.5       0.0       0.0      45.5      17.0
 1 Cl f-1             0.0       0.0       4.8       1.4       0.0       0.0
 1 Cl f+2             0.0       0.0      14.4      48.1       0.0       0.0
 1 Cl f-2             0.0       0.0       0.0       0.0      27.2      72.8
 1 Cl f+3             0.0      62.5       0.0       0.0      27.3      10.2
 1 Cl f-3             0.0       0.0      72.2      21.5       0.0       0.0

                     66        67        68        69        70        71   
                   2.67926   2.67926   2.87503   2.87503   2.87556   3.59589
                   0.00000   0.00000   0.00000   0.00000   0.00000   0.00000
                  --------  --------  --------  --------  --------  --------
 0 Na s               0.0       0.0       0.0       0.0       0.0     100.0
 1 Cl pz              0.0       0.0      93.4       6.6       0.0       0.0
 1 Cl px              0.0       0.0       0.0       0.0     100.0       0.0
 1 Cl py              0.0       0.0       6.6      93.4       0.0       0.0
 1 Cl f0              4.4      58.1       0.0       0.0       0.0       0.0
 1 Cl f-1            87.1       6.6       0.0       0.0       0.0       0.0
 1 Cl f+2             2.7      34.8       0.0       0.0       0.0       0.0
 1 Cl f-3             5.8       0.4       0.0       0.0       0.0       0.0

                     72        73        74        75        76        77   
                   5.94357   5.94357   5.94360   5.94360   5.94362  11.79244
                   0.00000   0.00000   0.00000   0.00000   0.00000   0.00000
                  --------  --------  --------  --------  --------  --------
 0 Na dz2            20.7      54.3       0.0       0.0      25.0       0.0
 0 Na dxz             0.0       0.0      23.5      76.5       0.0       0.0
 0 Na dyz            72.4      27.6       0.0       0.0       0.0       0.0
 0 Na dx2y2           6.9      18.1       0.0       0.0      75.0       0.0
 0 Na dxy             0.0       0.0      76.5      23.5       0.0       0.0
 1 Cl pz              0.0       0.0       0.0       0.0       0.0      19.9
 1 Cl py              0.0       0.0       0.0       0.0       0.0      80.1

                     78        79        80   
                  11.79244  11.79293  25.38064
                   0.00000   0.00000   0.00000
                  --------  --------  --------
 1 Cl s               0.0       0.0     100.0
 1 Cl pz             80.1       0.0       0.0
 1 Cl px              0.0     100.0       0.0
 1 Cl py             19.9       0.0       0.0

----------------------------
LOEWDIN REDUCED ACTIVE MOs  
----------------------------

                     12        13        14        15        16        17   
                  -0.19440  -0.19440  -0.13756  -0.06598  -0.06598  -0.06396
                   2.00000   2.00000   0.00000   0.00000   0.00000   0.00000
                  --------  --------  --------  --------  --------  --------
 0 Na s               0.0       0.0      99.5       0.0       0.0       1.3
 0 Na pz              0.0       0.0       0.0      75.9      24.1       0.0
 0 Na px              0.0       0.0       0.5       0.0       0.0      98.7
 0 Na py              0.0       0.0       0.0      24.1      75.9       0.0
 1 Cl pz             76.3      23.7       0.0       0.0       0.0       0.0
 1 Cl py             23.7      76.3       0.0       0.0       0.0       0.0

------------------------------------------------------------------------------
                           ORCA POPULATION ANALYSIS
------------------------------------------------------------------------------
Input electron density              ... cas.scfp
BaseName (.gbw .S,...)              ... cas

                    ********************************
                    * MULLIKEN POPULATION ANALYSIS *
                    ********************************

-----------------------
MULLIKEN ATOMIC CHARGES
-----------------------
   0 Na:    1.000010
   1 Cl:   -1.000010
Sum of atomic charges:    0.0000000

--------------------------------
MULLIKEN REDUCED ORBITAL CHARGES
--------------------------------
  0 Nas       :     4.000001  s :     4.000001
      pz      :     2.000000  p :     5.999989
      px      :     1.999990
      py      :     2.000000
      dz2     :     0.000000  d :     0.000001
      dxz     :     0.000000
      dyz     :     0.000000
      dx2y2   :     0.000000
      dxy     :     0.000000
  1 Cls       :     6.000052  s :     6.000052
      pz      :     3.999984  p :    11.999902
      px      :     3.999933
      py      :     3.999984
      dz2     :     0.000006  d :     0.000056
      dxz     :     0.000016
      dyz     :     0.000000
      dx2y2   :     0.000018
      dxy     :     0.000016
      f0      :     0.000000  f :     0.000000
      f+1     :     0.000000
      f-1     :     0.000000
      f+2     :     0.000000
      f-2     :     0.000000
      f+3     :     0.000000
      f-3     :     0.000000


                     *******************************
                     * LOEWDIN POPULATION ANALYSIS *
                     *******************************

----------------------
LOEWDIN ATOMIC CHARGES
----------------------
   0 Na:    0.999978
   1 Cl:   -0.999978

-------------------------------
LOEWDIN REDUCED ORBITAL CHARGES
-------------------------------
  0 Nas       :     4.000000  s :     4.000000
      pz      :     2.000000  p :     6.000021
      px      :     2.000021
      py      :     2.000000
      dz2     :     0.000000  d :     0.000001
      dxz     :     0.000000
      dyz     :     0.000000
      dx2y2   :     0.000000
      dxy     :     0.000000
  1 Cls       :     6.000050  s :     6.000050
      pz      :     3.999984  p :    11.999872
      px      :     3.999904
      py      :     3.999984
      dz2     :     0.000006  d :     0.000056
      dxz     :     0.000016
      dyz     :     0.000000
      dx2y2   :     0.000018
      dxy     :     0.000016
      f0      :     0.000000  f :     0.000000
      f+1     :     0.000000
      f-1     :     0.000000
      f+2     :     0.000000
      f-2     :     0.000000
      f+3     :     0.000000
      f-3     :     0.000000


                      *****************************
                      * MAYER POPULATION ANALYSIS *
                      *****************************

  NA   - Mulliken gross atomic population
  ZA   - Total nuclear charge
  QA   - Mulliken gross atomic charge
  VA   - Mayer's total valence
  BVA  - Mayer's bonded valence
  FA   - Mayer's free valence

  ATOM       NA         ZA         QA         VA         BVA        FA
  0 Na    10.0000    11.0000     1.0000    -0.0000    -0.0000     0.0000
  1 Cl    18.0000    17.0000    -1.0000    -0.0000    -0.0000     0.0000

  Mayer bond orders larger than 0.100000
  => No bond orders to print


----------------------------------------------------------------
                           < CASPT2  >                          
----------------------------------------------------------------

SYSTEM-SPECIFIC SETTINGS:
Number of active electrons          ...    2
Number of active orbitals           ...    2
Total number of electrons           ...   28
Total number of orbitals            ...   81

Determined orbital ranges:
   Internal       0 -   12 (  13 orbitals)
   Active        13 -   14 (   2 orbitals)
   External      15 -   80 (  66 orbitals)
  Last  frozen  orbital             ... 5
  First deleted orbital             ... 81
Number of multiplicity blocks       ...    1
BLOCK  0 WEIGHT=   1.0000
  Multiplicity                      ...    1
  #(Configurations)                 ...    3
  #(CSFs)                           ...    3
  #(Roots)                          ...    1
  PrintLevel                        ...    1

INTEGRAL-TRANSFORMATION-STEP:
  Algorithm                         ... EXACT

PT2-SETTINGS:
  CASPT2 Real Levelshift            ...  0.00e+00
  CASPT2 Im.  Levelshift            ...  0.00e+00
  CASPT2 IPEA Levelshift            ...  0.00e+00
 CI step strategy                   ... General CI
  D4C handling                      ... PS approximation (factorized) 
  CI truncation for D4C at          ...  1.00e-12
  CI truncation for D3  at          ...  1.00e-14
  NThresh (linear dependencies)     ...  1.00e-06
  Orbitals                          ... canonical for each state 
  MaxDIIS                           ... 7
  MaxIter                           ... 50
  PrintLevel                        ... 1 

 --------------------
  MULT 1, ROOT 0 
 --------------------
   --- Canonicalize Internal Space
   --- Canonicalize External Space

     D1, D2 Build      ... done in        0.0 sec
     D3 Build          ... CI space truncated: 3 -> 1 CFGs 
                       ... RI space truncated: 3 -> 2 CFGs 
                       ... 
                       ... correcting norm (1.000000e+00) 
                       ... done in        0.0 sec
     Hole densities    ... done in        0.0 sec
     Calc Fock         ... done in        0.0 sec
 CASPT2 intermediates avoiding 4-th order density matrix   ...

     Class VIJAB       ... done in        0.0 sec
     Class ITAB        ... Skipped =     30492 of        60984 LowestEV= 1.943957e-01 ... done in        0.1 sec 
     Class TUAB        ...  ERROR! All eigenvalues are <= 0 !!
Skipped =     13068 of        17424 LowestEV= 3.887914e-01 ... done in        0.0 sec 
     Class IJTA        ... Skipped =      3234 of         6468 LowestEV=-1.375564e-01 ... done in        0.1 sec 
     Class IJTU        ...  ERROR! All eigenvalues are <= 0 !!
Skipped =        84 of          112 LowestEV= 0.000000e+00 ... done in        0.0 sec 
     Class ITUA/ITAU   ... Skipped =      2310 of         3696 LowestEV=-2.087220e-16 ... done in        0.0 sec 
     Class TUVA        ... CI space truncated: 3 -> 1 CFGs 
                       ... RI space truncated: 3 -> 3 CFGs 
                       ... 
                       ... correcting norm (1.000000e+00) 
                       ... Skipped =       396 of          528 LowestEV= 1.943957e-01 ... done in        0.0 sec 
     Class ITUV        ... CI space truncated: 3 -> 1 CFGs 
                       ... RI space truncated: 3 -> 3 CFGs 
                       ... 
                       ... correcting norm (1.000000e+00) 
                       ... Skipped =         6 of           56 LowestEV=-1.375564e-01 ... done in        0.0 sec 

-----------------------------------
 CASPT2-D Energy =     -0.359702905
-----------------------------------

Class V0_ijab: dE=     -0.263451790
Class Vm1_iab: dE=     -0.076329215
Class Vm2_ab : dE=     -0.017647454
Class V1_ija : dE=     -0.002254506
Class V2_ij  : dE=     -0.000019935
Class V0_ia  : dE=     -0.000000006
Class Vm1_a  : dE=     -0.000000000
Class V1_i   : dE=     -0.000000000


smallest energy denominator IJAB =      0.256832006
smallest energy denominator ITAB =      0.256832006
smallest energy denominator IJTA =      0.185255314
smallest energy denominator TUAB =      0.256832006
smallest energy denominator IJTU =      0.113678621
smallest energy denominator ITAU =      0.128416003
smallest energy denominator TUVA =      0.128416003
smallest energy denominator ITUV =      0.056839310

 Iter           EPT2     EHylleraas  residual norm    Time
    1    -0.35970291    -0.35970290     0.00000331     0.6

 CASPT2 calculation converged in 1 iterations 


 Reference Weight =      0.910045283

 ===============================================================
                       CASPT2 Results  
 ===============================================================
   *********************
    MULT 1, ROOT 0 
   *********************

  Class V0_ijab :	 dE = -0.263451789632 
  Class Vm1_iab :	 dE = -0.076329214715 
  Class Vm2_ab  :	 dE = -0.017647453592 
  Class V1_ija  :	 dE = -0.002254505524 
  Class V2_ij   :	 dE = -0.000019934934 
  Class V0_ia   :	 dE = -0.000000006412 
  Class Vm1_a   :	 dE = -0.000000000211 
  Class V1_i    :	 dE = -0.000000000383 

 --------------------------------------------------------------- 
 	 Total Energy Correction : dE = -0.35970290540411
 --------------------------------------------------------------- 
 	 Reference  Energy       : E0 = -621.27911743034531
 	 Reference Weight        : W0 = 0.91004528336470
 --------------------------------------------------------------- 
 	 Total Energy (E0+dE)    : E  = -621.63882033574941
 --------------------------------------------------------------- 

--------------
TIMINGS CASPT2
--------------

Sum of individual times        ...       10.0 sec (100.0%)

   Integraltransformation      ...        2.3 sec ( 22.9%)
   Building Fock and alike     ...        0.0 sec (  0.2%)
   Building D2,D1              ...        0.0 sec (  0.0%)
   Building D3                 ...        0.0 sec (  0.1%)
   Building D4                 ...        0.0 sec (  0.1%)
   All densities               ...        0.0 sec (  0.1%)
   Hole Densities              ...        0.0 sec (  0.0%)
   Re-Canonicalization         ...        0.0 sec (  0.2%)
   Iterations                  ...        7.4 sec ( 74.0%)
   Classes Vijab               ...        0.0 sec (  0.0%)
   Class Viab                  ...        0.1 sec (  0.9%)
   Class Vab                   ...        0.0 sec (  0.0%)
   Class Vija                  ...        0.1 sec (  0.6%)
   Class Vij                   ...        0.0 sec (  0.0%)
   Class Via                   ...        0.0 sec (  0.1%)
   Class Va                    ...        0.0 sec (  0.1%)
   Class Vi                    ...        0.0 sec (  0.1%)
   All Classes                 ...        7.7 sec ( 76.6%)

-------------------------------------------------------------
 Forming the transition density       ... done in 0.0 sec
-------------------------------------------------------------

--------------
CASSCF TIMINGS
--------------

Total time                       ...       13.4 sec
Sum of individual times          ...       12.9 sec ( 96.9%)

Calculation of AO operators
   F(Core) operator              ...        0.2 sec (  1.9%)
   G(Act) operator               ...        0.0 sec (  0.2%)
Calculation of MO transformed quantities
   J(MO) operators               ...        1.9 sec ( 14.4%)
   AO->MO one electron integrals ...        0.0 sec (  0.0%)
Configuration interaction steps
   CI-setup phase                ...        0.4 sec (  3.1%)
   CI-solution phase             ...        0.2 sec (  1.3%)
   Generation of densities       ...        0.0 sec (  0.0%)
Orbital improvement steps
   Orbital gradient              ...        0.0 sec (  0.1%)
CPCM steps
   Total CPCM time               ...        0.0 sec (  0.1%)
PT2 
   CASPT2 time                   ...       10.1 sec ( 75.8%)
Properties                       ...        0.0 sec (  0.1%)
   SOC integral calculation      ...        0.0 sec (  0.0%)
   SSC RMEs (incl. integrals)    ...        0.0 sec (  0.0%)
   SOC RMEs                      ...        0.0 sec (  0.0%)

Maximum memory used throughout the entire CASSCF-calculation: 128.2 MB


           ************************************************************
           *        Program running with 8 parallel MPI-processes     *
           *              working on a common directory               *
           ************************************************************

------------------------------------------------------------------------------
                         ORCA PROPERTY INTEGRAL CALCULATIONS
------------------------------------------------------------------------------

GBWName                                   ... cas.gbw
Number of atoms                           ...      2
Number of basis functions                 ...     81
Max core memory                           ...   1024 MB

Dipole integrals                          ... YES
Quadrupole integrals                      ...  NO
Linear momentum integrals                 ...  NO
Angular momentum integrals                ... YES
Higher moments length integrals           ...  NO
Higher moments velocity integrals         ...  NO
Kinetic energy integrals                  ...  NO
GIAO right hand sides                     ...  NO
GIAO dipole derivative integrals          ...  NO
SOC integrals                             ...  NO
EPR diamagnetic integrals (GIAO)          ...  NO
EPR gauge integrals                       ...  NO
Field gradient integrals                  ...  NO (   0 nuclei)
Spin-dipole/Fermi contact integrals       ...  NO (   0 nuclei)
Contact density integrals                 ...  NO (   0 nuclei)
Nucleus-orbit integrals                   ...  NO (   0 nuclei)
Geometric perturbations                   ...  NO (   2 nuclei)

Choice of electric origin   ... Center of mass
Position of electric origin ... ( 13.7563,  0.0000,  0.0000) 
Choice of magnetic origin   ... GIAO
Position of magnetic origin ... (  0.0000,  0.0000,  0.0000) 

Calculating integrals                     ... Electric Dipole (Length)     done (  0.0 sec)
Calculating integrals                     ... Angular Momentum  (ElOri)    done (  0.0 sec)

Property integrals calculated in   0.0 sec

Maximum memory used throughout the entire PROPINT-calculation: 6.0 MB


           ************************************************************
           *        Program running with 8 parallel MPI-processes     *
           *              working on a common directory               *
           ************************************************************
-------------------------------------------------------------------------------
                              ORCA-CASSCF
-------------------------------------------------------------------------------

Setting up the integral package     ... done

PROPERTIES-SETTINGS:
  QDPT diagonal energies            ... CASPT2 energies 


==========================================
CASSCF UV, CD spectra and dipole moments
==========================================


=====================================================================
CASSCF (CASPT2 diagonal energies) UV, CD spectra and dipole moments
=====================================================================

--------------
CASSCF TIMINGS
--------------

Total time                       ...        1.1 sec
Sum of individual times          ...        1.1 sec ( 99.5%)

Calculation of AO operators
Calculation of MO transformed quantities
Configuration interaction steps
   CI-setup phase                ...        1.1 sec ( 99.5%)
Orbital improvement steps

Maximum memory used throughout the entire CASSCF-calculation: 25.8 MB

-------------------------   --------------------
FINAL SINGLE POINT ENERGY      -621.638820335749
-------------------------   --------------------

Storing actual gbw-file in cas.001.gbw ... done


           ************************************************************
           *        Program running with 8 parallel MPI-processes     *
           *              working on a common directory               *
           ************************************************************

------------------------------------------------------------------------------
                              ORCA PROPERTY CALCULATIONS
------------------------------------------------------------------------------

GBWName                                 ... cas.gbw
Number of atoms                         ...      2
Number of basis functions               ...     81
Max core memory                         ...   1024 MB

Electric properties:
Dipole moment                           ... YES
Quadrupole moment                       ...  NO
Static polarizability (Dipole/Dipole)   ...  NO
Static polarizability (Dipole/Quad.)    ...  NO
Static polarizability (Quad./Quad.)     ...  NO
Static polarizability (Velocity)        ...  NO

Atomic electric properties:
Dipole moment                           ...  NO
Quadrupole moment                       ...  NO
Static polarizability                   ...  NO

Choice of electric origin               ... Center of mass
Position of electric origin             ...    13.756267     0.000000     0.000000

General magnetic properties:
Magnetizability                         ...  NO

EPR properties:
g-Tensor (aka g-matrix)                 ...  NO
Zero-Field splitting spin-orbit         ...  NO
Zero-field splitting spin-spin          ...  NO
Hyperfine couplings                     ...  NO (   0 nuclei)
Quadrupole couplings                    ...  NO (   0 nuclei)
Contact density                         ...  NO (   0 nuclei)

NMR properties:
Chemical shifts                         ...  NO (   0 nuclei)
Spin-rotation constants                 ...  NO (   0 nuclei)
Spin-spin couplings                     ...  NO (   0 nuclei,    0 pairs)

Choice of magnetic origin               ... GIAO
Position of magnetic origin             ...     0.000000     0.000000     0.000000

Properties with geometric perturbations:
SCF Hessian                             ...  NO
IR spectrum                             ...  NO
VCD spectrum                            ...  NO
X-ray spectroscopy properties:
SCF XES/XAS/RIXS spectra                ...  NO


-------------
DIPOLE MOMENT
-------------

Method             : CASSCF
Type of density    : Electron Density
Level              : Relaxed density
State              :   0
Multiplicity       :   1
Irrep              :   0
Energy             :  -621.2791174303453090 Eh
Relativity type    : 
Basis              : AO
                                X                 Y                 Z
Electronic contribution:    -22.950391580      -0.000000000       0.000000000
Nuclear contribution   :      0.328648023       0.000000000       0.000000000
                        -----------------------------------------
Total Dipole Moment    :    -22.621743557      -0.000000000       0.000000000
                        -----------------------------------------
Magnitude (a.u.)       :     22.621743557
Magnitude (Debye)      :     57.499902530



--------------------
Rotational spectrum 
--------------------
 
Rotational constants in cm-1:             0.000000             0.008394             0.008394 
Rotational constants in MHz :             0.000000           251.649256           251.649256 

Dipole components along the rotational axes: 
x,y,z [a.u.] :   -22.621744    -0.000000     0.000000 
x,y,z [Debye]:   -57.499903    -0.000000     0.000000 

 

Dipole moment calculation done in   0.0 sec 

Maximum memory used throughout the entire PROP-calculation: 2.6 MB

         *************************************************************
                                TRAJECTORY STEP   2
                  R  :  11.89909910
         *************************************************************
---------------------------------
CARTESIAN COORDINATES (ANGSTROEM)
---------------------------------
  Na     0.000000    0.000000    0.000000
  Cl    11.899099    0.000000    0.000000

----------------------------
CARTESIAN COORDINATES (A.U.)
----------------------------
  NO LB      ZA    FRAG     MASS         X           Y           Z
   0 Na   11.0000    0    22.990    0.000000    0.000000    0.000000
   1 Cl   17.0000    0    35.453   22.486039    0.000000    0.000000

--------------------------------
INTERNAL COORDINATES (ANGSTROEM)
--------------------------------
 Na     0   0   0     0.000000000000     0.00000000     0.00000000
 Cl     1   0   0    11.899099099099     0.00000000     0.00000000

---------------------------
INTERNAL COORDINATES (A.U.)
---------------------------
 Na     0   0   0     0.000000000000     0.00000000     0.00000000
 Cl     1   0   0    22.486038537686     0.00000000     0.00000000



           ************************************************************
           *        Program running with 8 parallel MPI-processes     *
           *              working on a common directory               *
           ************************************************************
------------------------------------------------------------------------------
                   ___                                                        
                  /   \      - P O W E R E D   B Y -                         
                 /     \                                                     
                 |  |  |   _    _      __       _____    __    __             
                 |  |  |  | |  | |    /  \     |  _  \  |  |  /  |          
                  \  \/   | |  | |   /    \    | | | |  |  | /  /          
                 / \  \   | |__| |  /  /\  \   | |_| |  |  |/  /          
                |  |  |   |  __  | /  /__\  \  |    /   |      \           
                |  |  |   | |  | | |   __   |  |    \   |  |\   \          
                \     /   | |  | | |  |  |  |  | |\  \  |  | \   \       
                 \___/    |_|  |_| |__|  |__|  |_| \__\ |__|  \__/        
                                                                              
                      - O R C A' S   B I G   F R I E N D -                    
                                      &                                       
                       - I N T E G R A L  F E E D E R -                       
                                                                              
 v1 FN, 2020, v2 2021, v3 2022-2024                                           
------------------------------------------------------------------------------


----------------------
SHARK INTEGRAL PACKAGE
----------------------

Number of atoms                             ...      2
Number of basis functions                   ...     81
Number of shells                            ...     29
Maximum angular momentum                    ...      3
Integral batch strategy                     ... SHARK/LIBINT Hybrid
RI-J (if used) integral strategy            ... SPLIT-RIJ (Revised 2003 algorithm where possible)
Printlevel                                  ...      1
Contraction scheme used                     ... SEGMENTED contraction
Prescreening option                         ... SCHWARTZ
   Thresh                                   ... 1.000e-10
   Tcut                                     ... 1.000e-11
   Tpresel                                  ... 1.000e-11 
Coulomb Range Separation                    ... NOT USED
Exchange Range Separation                   ... NOT USED
Multipole approximations                    ... NOT USED
Finite Nucleus Model                        ... NOT USED
CABS basis                                  ... NOT available
Auxiliary Coulomb fitting basis             ... NOT available
Auxiliary J/K fitting basis                 ... NOT available
Auxiliary Correlation fitting basis         ... NOT available
Auxiliary 'external' fitting basis          ... NOT available

Checking pre-screening integrals            ... done (  0.0 sec) Dimension = 29
Check shell pair data                       ... done (  0.0 sec)
Shell pair information
Shell pair cut-off parameter TPreSel        ...   1.0e-11
Total number of shell pairs                 ...       435
Shell pairs after pre-screening             ...       301
Total number of primitive shell pairs       ...      1667
Primitive shell pairs kept                  ...      1013
          la=0 lb=0:     45 shell pairs
          la=1 lb=0:     87 shell pairs
          la=1 lb=1:     52 shell pairs
          la=2 lb=0:     40 shell pairs
          la=2 lb=1:     44 shell pairs
          la=2 lb=2:     13 shell pairs
          la=3 lb=0:      8 shell pairs
          la=3 lb=1:      8 shell pairs
          la=3 lb=2:      3 shell pairs
          la=3 lb=3:      1 shell pairs

Calculating one electron integrals          ... done (  0.0 sec)
Calculating Nuclear repulsion               ... done (  0.0 sec) ENN=      8.316271436011 Eh

Diagonalization of the overlap matrix:
Smallest eigenvalue                        ... 3.139e-02
Time for diagonalization                   ...    0.001 sec
Threshold for overlap eigenvalues          ... 1.000e-07
Number of eigenvalues below threshold      ... 0
Time for construction of square roots      ...    0.011 sec
Total time needed                          ...    0.017 sec

-------------------
DFT GRID GENERATION
-------------------

General Integration Accuracy     IntAcc      ... 4.388
Radial Grid Type                 RadialGrid  ... OptM3 with GC (2021)
Angular Grid (max. ang.)         AngularGrid ... 4 (Lebedev-302)
Angular grid pruning method      GridPruning ... 4 (adaptive)
Weight generation scheme         WeightScheme... mBecke (2022)
Basis function cutoff            BFCut       ... 1.0000e-10
Integration weight cutoff        WCut        ... 1.0000e-14
Partially contracted basis set               ... off
Rotationally invariant grid construction     ... off
Angular grids for H and He will be reduced by one unit
Diffuse basis detected: some atoms will have their outermost
                        angular grid increased by 1.

Total number of grid points                  ...    15060
Total number of batches                      ...      236
Average number of points per batch           ...       63
Average number of grid points per atom       ...     7530
Initializing property integral containers    ... done (  0.0 sec)

SHARK setup successfully completed in   0.3 seconds

Maximum memory used throughout the entire STARTUP-calculation: 13.9 MB


           ************************************************************
           *        Program running with 8 parallel MPI-processes     *
           *              working on a common directory               *
           ************************************************************
Occupation numbers will be reassigned to an Aufbau configuration
             **** ENERGY FILE WAS UPDATED (cas.en.tmp) ****
Finished Guess after   0.2 sec
Maximum memory used throughout the entire GUESS-calculation: 5.9 MB


           ************************************************************
           *        Program running with 8 parallel MPI-processes     *
           *              working on a common directory               *
           ************************************************************
-------------------------------------------------------------------------------
                              ORCA-CASSCF
-------------------------------------------------------------------------------

Building the CAS space              ... done (3 configurations for Mult=1)
Memory for address arrays  		      ... done
Make address arrays			      ... done
Memory for buffers 			      ... done
Setting up spin-function prototypes	      ... (MAXOPEN=2) 0 2 4 done
Trivial cases - DOMO's			      ... done (  0.0 MB)
Number of open shells			    ...  0
domo->virtual excitations			... done (  0.0 MB)
domo->somo excitations				... done (  0.0 MB)
somo->virtual excitations			... done (  0.0 MB)
somo->somo excitations				... done (  0.0 MB)
Number of open shells			    ...  2
domo->virtual excitations			... done (  0.0 MB)
domo->somo excitations				... done (  0.0 MB)
somo->virtual excitations			... done (  0.0 MB)
somo->somo excitations				... done (  0.0 MB)
Coupling container construction done

 CASSCF (estimated) memory needed     ... 1.2 MB
 CASPT2 (estimated) memory needed     ... 2.3 MB 


SYSTEM-SPECIFIC SETTINGS:
Number of active electrons          ...    2
Number of active orbitals           ...    2
Total number of electrons           ...   28
Total number of orbitals            ...   81

Determined orbital ranges:
   Internal       0 -   12 (  13 orbitals)
   Active        13 -   14 (   2 orbitals)
   External      15 -   80 (  66 orbitals)
Number of rotation parameters      ...   1016

CI-STEP:
CI strategy                         ... General CI
Number of multiplicity blocks       ...    1
BLOCK  0 WEIGHT=   1.0000
  Multiplicity                      ...    1
  #(Configurations)                 ...    3
  #(CSFs)                           ...    3
  #(Roots)                          ...    1
    ROOT=0 WEIGHT=    1.000000

  PrintLevel                        ...    1
  N(GuessMat)                       ...      2048
  MaxDim(CI)                        ...        10
  MaxIter(CI)                       ...        64
  Energy Tolerance CI               ...  1.00e-08
  Residual Tolerance CI             ...  1.00e-08
  Shift(CI)                         ...  1.00e-04

INTEGRAL-TRANSFORMATION-STEP:
  Algorithm                         ... EXACT

ORBITAL-IMPROVEMENT-STEP:
  Algorithm                         ... SuperCI(PT)
  Default Parametrization           ... CAYLEY
  Act-Act rotations                 ... depends on algorithm used

  Note: SuperCI(PT) will ignore FreezeIE, FreezeAct and FreezeGrad. In general Default settings are encouraged.
        In conjunction with ShiftUp, ShiftDn or GradScaling the performance of SuperCI(PT) is less optimal.  

  MaxRot                            ... 2.00e-01 
  Max. no of vectors (DIIS)         ... 15
  DThresh (cut-off) metric          ... 1.00e-06
  Switch step at gradient           ...  3.00e-02 
  Switch step at iteration          ...        50   
  Switch step to                    ... SuperCI(PT)    

SCF-SETTINGS:
  Incremental                       ... on
  RIJCOSX approximation             ... off
  RI-JK approximation               ... off
  AO integral handling              ... DIRECT
  Integral Neglect Thresh           ...  1.00e-10
  Primitive cutoff TCut             ...  1.00e-11
  Energy convergence tolerance      ...  1.00e-07
  Orbital gradient convergence      ...  1.00e-03
  Max. number of iterations         ...        75  

PT2-SETTINGS:
  A PT2 calculation will be performed on top of the CASSCF wave function (PT2 = CASPT2)   
  CASPT2 Real Levelshift            ...  0.00e+00
  CASPT2 Im.  Levelshift            ...  0.00e+00
  CASPT2 IPEA Levelshift            ...  0.00e+00
 CI step strategy                   ... General CI
  D4C handling                      ... PS approximation (factorized) 
  CI truncation for D4C at          ...  1.00e-12
  CI truncation for D3  at          ...  1.00e-14
  Orbitals                          ... canonical for each state 
  Last  frozen  orbital             ... 5
  First deleted orbital             ... 81

FINAL ORBITALS:
  Active   Orbitals                 ... natural 
  Internal Orbitals                 ... canonical 
  External Orbitals                 ... canonical 

------------------
CAS-SCF ITERATIONS
------------------


MACRO-ITERATION   1: 
   --- Inactive Energy E0 = -620.40225503 Eh
CI-ITERATION   0: 
  -621.279493236   0.000000000000 (    0.01)
   CI-PROBLEM SOLVED
   DENSITIES MADE

                 <<<<<<<<<<<<<<<<<<INITIAL CI STATE CHECK>>>>>>>>>>>>>>>>>>

BLOCK  0 MULT= 1 NROOTS= 1 
[...]
Position of magnetic origin             ...     0.000000     0.000000     0.000000

Properties with geometric perturbations:
SCF Hessian                             ...  NO
IR spectrum                             ...  NO
VCD spectrum                            ...  NO
X-ray spectroscopy properties:
SCF XES/XAS/RIXS spectra                ...  NO


-------------
DIPOLE MOMENT
-------------

Method             : CASSCF
Type of density    : Electron Density
Level              : Relaxed density
State              :   0
Multiplicity       :   1
Irrep              :   0
Energy             :  -617.2803107189376988 Eh
Relativity type    : 
Basis              : AO
                                X                 Y                 Z
Electronic contribution:     -0.361420301       0.000032517      -0.000018148
Nuclear contribution   :      0.021909868       0.000000000       0.000000000
                        -----------------------------------------
Total Dipole Moment    :     -0.339510432       0.000032517      -0.000018148
                        -----------------------------------------
Magnitude (a.u.)       :      0.339510435
Magnitude (Debye)      :      0.862966943



--------------------
Rotational spectrum 
--------------------
 
Rotational constants in cm-1:             0.000000             1.888676             1.888676 
Rotational constants in MHz :             0.000000         56621.082631         56621.082631 

Dipole components along the rotational axes: 
x,y,z [a.u.] :    -0.339510     0.000033    -0.000018 
x,y,z [Debye]:    -0.862967     0.000083    -0.000046 

 

Dipole moment calculation done in   0.1 sec 

Maximum memory used throughout the entire PROP-calculation: 19.9 MB
                              **** TRAJECTORY DONE ***

                         SUMMARY OF THE CALCULATED SURFACE

------------------
TRAJECTORY RESULTS
------------------

Column   1: R

The Calculated Surface using the 'Actual Energy'
  12.00000000 -621.63882034
  11.89909910 -621.63919631
  11.79819820 -621.63957876
  11.69729730 -621.63996820
  11.59639640 -621.64036415
  11.49549550 -621.64076711
  11.39459459 -621.64117772
  11.29369369 -621.64159530
  11.19279279 -621.64202100
  11.09189189 -621.64245401
  10.99099099 -621.64289557
  10.89009009 -621.64334488
  10.78918919 -621.64380328
  10.68828829 -621.64426983
  10.58738739 -621.64474604
  10.48648649 -621.64523085
  10.38558559 -621.64572595
  10.28468468 -621.64623012
  10.18378378 -621.64674526
  10.08288288 -621.64727000
   9.98198198 -621.64780644
   9.88108108 -621.64835303
   9.78018018 -621.64891215
   9.67927928 -621.64948200
   9.57837838 -621.65006529
   9.47747748 -621.65065994
   9.37657658 -621.65126905
   9.27567568 -621.65189135
   9.17477477 -621.65252751
   9.07387387 -621.65317811
   8.97297297 -621.65384369
   8.87207207 -621.65452480
   8.77117117 -621.65522202
   8.67027027 -621.65593595
   8.56936937 -621.65666724
   8.46846847 -621.65741655
   8.36756757 -621.65818458
   8.26666667 -621.65897208
   8.16576577 -621.65977983
   8.06486486 -621.66060867
   7.96396396 -621.66145947
   7.86306306 -621.66233316
   7.76216216 -621.66323074
   7.66126126 -621.66415325
   7.56036036 -621.66510179
   7.45945946 -621.66607757
   7.35855856 -621.66708182
   7.25765766 -621.66811588
   7.15675676 -621.66918119
   7.05585586 -621.67027925
   6.95495495 -621.67141169
   6.85405405 -621.67259425
   6.75315315 -621.67379582
   6.65225225 -621.67503905
   6.55135135 -621.67634131
   6.45045045 -621.67767640
   6.34954955 -621.67905853
   6.24864865 -621.68049057
   6.14774775 -621.68197524
   6.04684685 -621.68351565
   5.94594595 -621.68512275
   5.84504505 -621.68677874
   5.74414414 -621.68850679
   5.64324324 -621.69031589
   5.54234234 -621.69218283
   5.44144144 -621.69414824
   5.34054054 -621.69617888
   5.23963964 -621.69832182
   5.13873874 -621.70053759
   5.03783784 -621.70288064
   4.93693694 -621.70530495
   4.83603604 -621.70787270
   4.73513514 -621.71053102
   4.63423423 -621.71335280
   4.53333333 -621.71638834
   4.43243243 -621.71946271
   4.33153153 -621.72269391
   4.23063063 -621.72608146
   4.12972973 -621.72963142
   4.02882883 -621.73334979
   3.92792793 -621.73724154
   3.82702703 -621.74131021
   3.72612613 -621.74555733
   3.62522523 -621.74998171
   3.52432432 -621.75457837
   3.42342342 -621.75933728
   3.32252252 -621.76424151
   3.22162162 -621.76926499
   3.12072072 -621.77436942
   3.01981982 -621.77950012
   2.91891892 -621.78458010
   2.81801802 -621.78950111
   2.71711712 -621.79410944
   2.61621622 -621.79818351
   2.51531532 -621.80139176
   2.41441441 -621.80326523
   2.31351351 -621.80308553
   2.21261261 -621.79980961
   2.11171171 -621.79193229
   2.01081081 -621.77731572
   1.90990991 -621.75294792
   1.80900901 -621.71466720
   1.70810811 -621.65685284
   1.60720721 -621.57226107
   1.50630631 -621.45227207
   1.40540541 -621.28817987
   1.30450450 -621.07329799
   1.20360360 -620.79920767
   1.10270270 -620.43620204
   1.00180180 -619.90869923
   0.90090090 -619.07140664
   0.80000000 -617.65898407

                        *******************************
                        *   FIT OF THE ACT-ENERGY PES *
                        *******************************
-------------------------------
POTENTIAL ENERGY SURFACE =   0
-------------------------------

Minimum found after 28 iterations
Equilibrium distance and its energy from the interpolated PES:
  Re      =   2.36955 Angstroem  (  4.47779 Bohr)
  E(Re)   =  -621.803493 Eh 
  dE/dR   = 6.874e-08 (6.398e-01 CHEB)
  d2E/dR2 =    0.067513 (  -1.306568 CHEB) (   0.378554 NUM)
  d3E/dR3 =   -0.146600 (  -5.130138 CHEB)

Spectroscopic constants:
  we =     358.5 cm**-1 (based on SPLINE)
  we =      -nan cm**-1 (based on CHEB)
  we =     849.0 cm**-1 (based on NUM)

Performing Morse fit ...
Morse-Fit Results:
 Te(adiabatic)   =   48211.6 cm**-1         =  5.977 eV
 d2E/dR**2 (Morse)=      0.000000002 
 d3E/dR**3 (Morse)=     -0.000000000 
 d4E/dR**4 (Morse)=      0.000000000 
 E0               =   -621.583824650 Eh  RMS=3.28e-04
 Re               =   2.49663 Angstroem      =  4.71795 Bohr RMS=6.34e-05)
 De(Morse)        =  14.07421 eV             = 113516.2 cm**-1 RMS=2.99e-04
 D0(Morse)        =  14.07421 eV
 beta             =   0.00004 au          RMS=9.46e-05
 we               =      0.1 cm**-1
 wexe             =      0.0 cm**-1
 Displacement   =    0.1271 Angstroem      =  0.24016 Bohr

The Calculated Surface using the SCF energy
  12.00000000 -621.27911743
  11.89909910 -621.27949324
  11.79819820 -621.27987549
  11.69729730 -621.28026450
  11.59639640 -621.28066024
  11.49549550 -621.28106294
  11.39459459 -621.28147303
  11.29369369 -621.28189034
  11.19279279 -621.28231537
  11.09189189 -621.28274809
  10.99099099 -621.28318894
  10.89009009 -621.28363792
  10.78918919 -621.28409552
  10.68828829 -621.28456171
  10.58738739 -621.28503703
  10.48648649 -621.28552145
  10.38558559 -621.28601555
  10.28468468 -621.28651929
  10.18378378 -621.28703332
  10.08288288 -621.28755758
   9.98198198 -621.28809279
   9.88108108 -621.28863886
   9.78018018 -621.28919661
   9.67927928 -621.28976588
   9.57837838 -621.29034764
   9.47747748 -621.29094166
   9.37657658 -621.29154904
   9.27567568 -621.29216976
   9.17477477 -621.29280434
   9.07387387 -621.29345331
   8.97297297 -621.29411716
   8.87207207 -621.29479643
   8.77117117 -621.29549167
   8.67027027 -621.29620347
   8.56936937 -621.29693243
   8.46846847 -621.29767921
   8.36756757 -621.29844447
   8.26666667 -621.29922894
   8.16576577 -621.30003337
   8.06486486 -621.30085854
   7.96396396 -621.30170532
   7.86306306 -621.30257457
   7.76216216 -621.30346725
   7.66126126 -621.30438436
   7.56036036 -621.30532695
   7.45945946 -621.30629616
   7.35855856 -621.30729317
   7.25765766 -621.30831926
   7.15675676 -621.30937578
   7.05585586 -621.31046418
   6.95495495 -621.31158601
   6.85405405 -621.31274425
   6.75315315 -621.31393778
   6.65225225 -621.31516993
   6.55135135 -621.31644432
   6.45045045 -621.31776075
   6.34954955 -621.31912250
   6.24864865 -621.32053213
   6.14774775 -621.32199237
   6.04684685 -621.32350619
   5.94594595 -621.32507700
   5.84504505 -621.32670771
   5.74414414 -621.32840243
   5.64324324 -621.33016540
   5.54234234 -621.33200016
   5.44144144 -621.33391210
   5.34054054 -621.33590521
   5.23963964 -621.33798559
   5.13873874 -621.34015763
   5.03783784 -621.34242824
   4.93693694 -621.34480220
   4.83603604 -621.34728731
   4.73513514 -621.34988875
   4.63423423 -621.35261532
   4.53333333 -621.36299132
   4.43243243 -621.36599322
   4.33153153 -621.36914193
   4.23063063 -621.37244553
   4.12972973 -621.37591165
   4.02882883 -621.37954749
   3.92792793 -621.38335951
   3.82702703 -621.38735290
   3.72612613 -621.39153099
   3.62522523 -621.39589443
   3.52432432 -621.40044004
   3.42342342 -621.40515938
   3.32252252 -621.41003679
   3.22162162 -621.41504678
   3.12072072 -621.42015049
   3.01981982 -621.42529065
   2.91891892 -621.43038425
   2.81801802 -621.43531147
   2.71711712 -621.43989925
   2.61621622 -621.44389699
   2.51531532 -621.44694181
   2.41441441 -621.44850869
   2.31351351 -621.44784329
   2.21261261 -621.44386898
   2.11171171 -621.43506077
   2.01081081 -621.41926994
   1.90990991 -621.39348358
   1.80900901 -621.35351590
   1.70810811 -621.29367003
   1.60720721 -621.20650357
   1.50630631 -621.08307463
   1.40540541 -620.91440627
   1.30450450 -620.69424647
   1.20360360 -620.41660149
   1.10270270 -620.05407081
   1.00180180 -619.52878106
   0.90090090 -618.69276363
   0.80000000 -617.28031072

                        *******************************
                        *       FIT OF THE SCF PES    *
                        *******************************
-------------------------------
POTENTIAL ENERGY SURFACE =   0
-------------------------------

Minimum found after 29 iterations
Equilibrium distance and its energy from the interpolated PES:
  Re      =   2.38826 Angstroem  (  4.51316 Bohr)
  E(Re)   =  -621.448588 Eh 
  dE/dR   = 4.909e-08 (6.508e-01 CHEB)
  d2E/dR2 =    0.067474 (  -1.315299 CHEB) (   0.374189 NUM)
  d3E/dR3 =   -0.152352 (  -5.758442 CHEB)

Spectroscopic constants:
  we =     358.4 cm**-1 (based on SPLINE)
  we =      -nan cm**-1 (based on CHEB)
  we =     844.0 cm**-1 (based on NUM)

Performing Morse fit ...
Morse-Fit Results:
 Te(adiabatic)   =   49351.7 cm**-1         =  6.119 eV
 d2E/dR**2 (Morse)=      0.000000003 
 d3E/dR**3 (Morse)=      0.000000000 
 d4E/dR**4 (Morse)=      0.000000000 
 E0               =   -621.223724974 Eh  RMS=3.13e-04
 Re               =   2.51689 Angstroem      =  4.75623 Bohr RMS=9.26e-05)
 De(Morse)        =  12.79614 eV             = 103207.9 cm**-1 RMS=8.91e-04
 D0(Morse)        =  12.79614 eV
 beta             =  -0.00006 au          RMS=1.26e-04
 we               =      0.1 cm**-1
 wexe             =      0.0 cm**-1
 Displacement   =    0.1286 Angstroem      =  0.24307 Bohr

The Calculated Surfaces using the CASPT2 energies
  12.00000000 -621.63882034
  11.89909910 -621.63919631
  11.79819820 -621.63957876
  11.69729730 -621.63996820
  11.59639640 -621.64036415
  11.49549550 -621.64076711
  11.39459459 -621.64117772
  11.29369369 -621.64159530
  11.19279279 -621.64202100
  11.09189189 -621.64245401
  10.99099099 -621.64289557
  10.89009009 -621.64334488
  10.78918919 -621.64380328
  10.68828829 -621.64426983
  10.58738739 -621.64474604
  10.48648649 -621.64523085
  10.38558559 -621.64572595
  10.28468468 -621.64623012
  10.18378378 -621.64674526
  10.08288288 -621.64727000
   9.98198198 -621.64780644
   9.88108108 -621.64835303
   9.78018018 -621.64891215
   9.67927928 -621.64948200
   9.57837838 -621.65006529
   9.47747748 -621.65065994
   9.37657658 -621.65126905
   9.27567568 -621.65189135
   9.17477477 -621.65252751
   9.07387387 -621.65317811
   8.97297297 -621.65384369
   8.87207207 -621.65452480
   8.77117117 -621.65522202
   8.67027027 -621.65593595
   8.56936937 -621.65666724
   8.46846847 -621.65741655
   8.36756757 -621.65818458
   8.26666667 -621.65897208
   8.16576577 -621.65977983
   8.06486486 -621.66060867
   7.96396396 -621.66145947
   7.86306306 -621.66233316
   7.76216216 -621.66323074
   7.66126126 -621.66415325
   7.56036036 -621.66510179
   7.45945946 -621.66607757
   7.35855856 -621.66708182
   7.25765766 -621.66811588
   7.15675676 -621.66918119
   7.05585586 -621.67027925
   6.95495495 -621.67141169
   6.85405405 -621.67259425
   6.75315315 -621.67379582
   6.65225225 -621.67503905
   6.55135135 -621.67634131
   6.45045045 -621.67767640
   6.34954955 -621.67905853
   6.24864865 -621.68049057
   6.14774775 -621.68197524
   6.04684685 -621.68351565
   5.94594595 -621.68512275
   5.84504505 -621.68677874
   5.74414414 -621.68850679
   5.64324324 -621.69031589
   5.54234234 -621.69218283
   5.44144144 -621.69414824
   5.34054054 -621.69617888
   5.23963964 -621.69832182
   5.13873874 -621.70053759
   5.03783784 -621.70288064
   4.93693694 -621.70530495
   4.83603604 -621.70787270
   4.73513514 -621.71053102
   4.63423423 -621.71335280
   4.53333333 -621.71638834
   4.43243243 -621.71946271
   4.33153153 -621.72269391
   4.23063063 -621.72608146
   4.12972973 -621.72963142
   4.02882883 -621.73334979
   3.92792793 -621.73724154
   3.82702703 -621.74131021
   3.72612613 -621.74555733
   3.62522523 -621.74998171
   3.52432432 -621.75457837
   3.42342342 -621.75933728
   3.32252252 -621.76424151
   3.22162162 -621.76926499
   3.12072072 -621.77436942
   3.01981982 -621.77950012
   2.91891892 -621.78458010
   2.81801802 -621.78950111
   2.71711712 -621.79410944
   2.61621622 -621.79818351
   2.51531532 -621.80139176
   2.41441441 -621.80326523
   2.31351351 -621.80308553
   2.21261261 -621.79980961
   2.11171171 -621.79193229
   2.01081081 -621.77731572
   1.90990991 -621.75294792
   1.80900901 -621.71466720
   1.70810811 -621.65685284
   1.60720721 -621.57226107
   1.50630631 -621.45227207
   1.40540541 -621.28817987
   1.30450450 -621.07329799
   1.20360360 -620.79920767
   1.10270270 -620.43620204
   1.00180180 -619.90869923
   0.90090090 -619.07140664
   0.80000000 -617.65898407

                        *******************************
                        *     FIT OF THE CASPT2 PES   *
                        *******************************
-------------------------------
POTENTIAL ENERGY SURFACE =   0
-------------------------------

Minimum found after 28 iterations
Equilibrium distance and its energy from the interpolated PES:
  Re      =   2.36955 Angstroem  (  4.47779 Bohr)
  E(Re)   =  -621.803493 Eh 
  dE/dR   = 6.874e-08 (6.398e-01 CHEB)
  d2E/dR2 =    0.067513 (  -1.306568 CHEB) (   0.378554 NUM)
  d3E/dR3 =   -0.146600 (  -5.130138 CHEB)

Spectroscopic constants:
  we =     358.5 cm**-1 (based on SPLINE)
  we =      -nan cm**-1 (based on CHEB)
  we =     849.0 cm**-1 (based on NUM)

Performing Morse fit ...
Morse-Fit Results:
 Te(adiabatic)   =   48211.6 cm**-1         =  5.977 eV
 d2E/dR**2 (Morse)=      0.000000002 
 d3E/dR**3 (Morse)=     -0.000000000 
 d4E/dR**4 (Morse)=      0.000000000 
 E0               =   -621.583824650 Eh  RMS=3.28e-04
 Re               =   2.49663 Angstroem      =  4.71795 Bohr RMS=6.34e-05)
 De(Morse)        =  14.07421 eV             = 113516.2 cm**-1 RMS=2.99e-04
 D0(Morse)        =  14.07421 eV
 beta             =   0.00004 au          RMS=9.46e-05
 we               =      0.1 cm**-1
 wexe             =      0.0 cm**-1
 Displacement   =    0.1271 Angstroem      =  0.24016 Bohr


--------------------------------
SUGGESTED CITATIONS FOR THIS RUN
--------------------------------

Below you find a list of papers that are relevant to this ORCA run
We neither can nor want to force you to cite these papers, but we appreciate if you do
You receive ORCA, which is the product of decades of hard work by many enthusiastic individuals, for free
The only thing we kindly ask in return is that you cite our papers,
We deeply appreciate it, if you show your appreciation for ORCA by not just citing the generic ORCA reference.

Please note that relegating all ORCA citations to the supporting information does *not* help us.
SI sections are not indexed - citations you put there will not count into any citation statistics
But we need these citations in order to attract the funding resources that allow us to do what we are doing

Therefore, if you are a happy ORCA user, please consider citing a few of the papers listed below in the main body of your paper

In addition to the list printed below, the program has created the file cas.bibtex that contains the list in bibtex format
You can import this file easily into all common literature databanks and citation aid programs


List of essential papers. We consider these as the minimum necessary citations

  1. Neese,F.
     Software update: the ORCA program system, version 5.0
     WIRES Comput. Molec. Sci., 2022 12(1)e1606
     doi.org/10.1002/wcms.1606

List of papers to cite with high priority. The work reported in these papers was absolutely
necessary for this run to complete.
Our perspective: the developers of density functionals and basis sets usually get cited in chemistry papers
Good! But without the algorithms to do something with them, the functionals or basis sets would not do anything.
Hence, in our opinion, the algorithm design and method developments papers are equally worthy of getting cited

  1. Kollmar,C.; Sivalingam,K.; Helmich-Paris,B.; Angeli,C.; Neese,F.
     A perturbation-based super-CI approach for the orbital optimization of a CASSCF wave function
     J. Comput. Chem., 2019 40 1463-1470
     doi.org/10.1002/jcc.25801
  2. Kollmar,C.; Sivalingam,K.; Neese,F.
     An efficient implementation of the NEVPT2 and CASPT2 methods avoiding higher-order density matrices
     J. Chem. Phys., 2021 155 234104
     doi.org/10.1063/5.0072129
  3. Neese,F.
     The SHARK Integral Generation and Digestion System
     J. Comp. Chem., 2022  1-16
     doi.org/10.1002/jcc.26942
  4. Ugandi,M.; Roemelt,M.
     A recursive formulation of one-electron coupling coefficients for spin-adapted configuration interaction calculations featuring many unpaired electrons
     Int. J. Quantum Chem., 2023 123 e27045
     doi.org/10.1002/qua.27045

List of suggested additional citations. These are papers that are important in the 'surrounding' of 
of this run, or papers that preceded the highly important papers. If you like your results we are grateful for a citation.

  1. Neese,F.
     The ORCA program system
     WIRES Comput. Molec. Sci., 2012 2(1)73-78
     doi.org/10.1002/wcms.81
  2. Neese,F.
     Software update: the ORCA program system, version 4.0
     WIRES Comput. Molec. Sci., 2018 8(1)1-6
     doi.org/10.1002/wcms.1327
  3. Kollmar,C.; Sivalingam,K.; Neese,F.
     An alternative choice of the zeroth-order Hamiltonian in CASPT2 theory
     J. Chem. Phys., 2020 152 214110
     doi.org/10.1063/5.0017762
  4. Neese,F.; Wennmohs,F.; Becker,U.; Riplinger,C.
     The ORCA quantum chemistry program package
     J. Chem. Phys., 2020 152 Art. No. L224108
     doi.org/10.1063/5.0004608

List of optional additional citations

  1. Neese,F.
     Approximate second-order SCF convergence for spin unrestricted wavefunctions
     Chem. Phys. Lett., 2000 325(1-3)93-98
     doi.org/10.1016/s0009-2614(00)00662-x

Timings for individual modules:

Sum of individual times          ...     3823.568 sec (=  63.726 min)
Startup calculation              ...       55.642 sec (=   0.927 min)   1.5 %
SCF iterations                   ...       42.666 sec (=   0.711 min)   1.1 %
CASSCF iterations                ...     3653.144 sec (=  60.886 min)  95.5 %
Property integrals               ...       36.250 sec (=   0.604 min)   0.9 %
Property calculations            ...       35.866 sec (=   0.598 min)   0.9 %
                             ****ORCA TERMINATED NORMALLY****
TOTAL RUN TIME: 0 days 1 hours 4 minutes 30 seconds 120 msec
