9
Coordinates from ORCA-job orca Relaxed Surface Scan Step 1 E -576.820277320321
  C       0.856751      0.105447     -0.055900
  Cl      2.109353     -0.625179      0.831329
  H       0.921713     -0.178457     -1.101662
  H       0.900411      1.184889      0.050673
  H      -0.083802     -0.253395      0.351405
  O       4.691948      0.199113     -0.070608
  H       3.693747     -0.050441      0.195813
  H       4.945435     -0.088164     -0.965764
  H       4.918443      1.134198      0.079063
>
9
Coordinates from ORCA-job orca Relaxed Surface Scan Step 2 E -576.824801957989
  C       0.811037      0.123625     -0.078502
  Cl      2.148665     -0.641859      0.855152
  H       0.905285     -0.179490     -1.114387
  H       0.881540      1.197322      0.048164
  H      -0.103340     -0.260992      0.358478
  O       4.710131      0.197768     -0.069934
  H       3.712966     -0.057224      0.205108
  H       4.955402     -0.085017     -0.968656
  H       4.932314      1.133877      0.078927
>
9
Coordinates from ORCA-job orca Relaxed Surface Scan Step 3 E -576.822701128649
  C       0.761175      0.141516     -0.101023
  Cl      2.190503     -0.657060      0.870536
  H       0.878309     -0.180815     -1.127106
  H       0.858513      1.209242      0.043790
  H      -0.122715     -0.268322      0.370776
  O       4.731346      0.197181     -0.067909
  H       3.732429     -0.064025      0.212776
  H       4.974394     -0.083658     -0.967525
  H       4.950047      1.133951      0.080034
>
9
Coordinates from ORCA-job orca Relaxed Surface Scan Step 4 E -576.816781463700
  C       0.707237      0.158793     -0.122955
  Cl      2.234010     -0.667453      0.881731
  H       0.845129     -0.181654     -1.139443
  H       0.828294      1.220674      0.038094
  H      -0.142285     -0.277472      0.384691
  O       4.756237      0.195704     -0.065418
  H       3.753373     -0.070163      0.220096
  H       4.997822     -0.082553     -0.965836
  H       4.974184      1.132134      0.083388
>
9
Coordinates from ORCA-job orca Relaxed Surface Scan Step 5 E -576.808824714621
  C       0.650362      0.175209     -0.143751
  Cl      2.278848     -0.674994      0.889475
  H       0.806991     -0.181206     -1.151321
  H       0.792627      1.231469      0.031898
  H      -0.162118     -0.287312      0.398844
  O       4.784234      0.193879     -0.062263
  H       3.775653     -0.076439      0.227511
  H       5.025560     -0.082509     -0.962880
  H       5.001843      1.129913      0.086839
>
9
Coordinates from ORCA-job orca Relaxed Surface Scan Step 6 E -576.799925814008
  C       0.591886      0.190363     -0.163222
  Cl      2.324879     -0.681898      0.894273
  H       0.763583     -0.181404     -1.162445
  H       0.754460      1.241514      0.023291
  H      -0.182368     -0.295098      0.413665
  O       4.814645      0.191939     -0.058674
  H       3.798893     -0.083531      0.235397
  H       5.055801     -0.081149     -0.959859
  H       5.032220      1.127274      0.091925
>
9
Coordinates from ORCA-job orca Relaxed Surface Scan Step 7 E -576.790762477400
  C       0.532175      0.204083     -0.181103
  Cl      2.372006     -0.686984      0.897893
  H       0.716648     -0.181029     -1.172987
  H       0.712042      1.250947      0.013518
  H      -0.203628     -0.302214      0.427416
  O       4.847577      0.189609     -0.055079
  H       3.822999     -0.091070      0.244068
  H       5.088065     -0.079180     -0.957215
  H       5.066115      1.123848      0.097838
>
9
Coordinates from ORCA-job orca Relaxed Surface Scan Step 8 E -576.781743432447
  C       0.472712      0.216317     -0.197153
  Cl      2.420363     -0.694877      0.898830
  H       0.664106     -0.182307     -1.182629
  H       0.670067      1.259871     -0.000471
  H      -0.225561     -0.304846      0.442607
  O       4.882148      0.187869     -0.051133
  H       3.846896     -0.100534      0.253358
  H       5.122414     -0.074380     -0.954698
  H       5.100855      1.120896      0.105638
>
9
Coordinates from ORCA-job orca Relaxed Surface Scan Step 9 E -576.773104179079
  C       0.415434      0.227748     -0.211950
  Cl      2.469636     -0.703126      0.902000
  H       0.613747     -0.182687     -1.191705
  H       0.627299      1.268600     -0.013523
  H      -0.247690     -0.306675      0.454468
  O       4.916127      0.186725     -0.048300
  H       3.866928     -0.111747      0.264823
  H       5.156556     -0.069170     -0.952993
  H       5.135963      1.118341      0.111530
>
9
Coordinates from ORCA-job orca Relaxed Surface Scan Step 10 E -576.764996775263
  C       0.366722      0.238407     -0.225526
  Cl      2.520228     -0.720195      0.911925
  H       0.569383     -0.185137     -1.199435
  H       0.594163      1.276759     -0.028260
  H      -0.269672     -0.301870      0.462838
  O       4.943694      0.188720     -0.048900
  H       3.876341     -0.127278      0.279814
  H       5.186199     -0.059152     -0.954418
  H       5.166943      1.117756      0.116313
>
9
Coordinates from ORCA-job orca Relaxed Surface Scan Step 11 E -576.757523427364
  C       0.322248      0.248427     -0.237977
  Cl      2.571792     -0.745329      0.922289
  H       0.523614     -0.192009     -1.205445
  H       0.567971      1.284890     -0.049024
  H      -0.290865     -0.289942      0.473694
  O       4.969408      0.194647     -0.053001
  H       3.869278     -0.150006      0.299555
  H       5.218961     -0.041006     -0.958655
  H       5.201593      1.118337      0.122913
>
9
Coordinates from ORCA-job orca Relaxed Surface Scan Step 12 E -576.753435080207
  C       0.324598      0.246830     -0.237274
  Cl      2.649482     -0.865280      0.910348
  H       0.466022     -0.280793     -1.172624
  H       0.668666      1.268302     -0.131849
  H      -0.283460     -0.196709      0.542264
  O       4.750093      0.494915     -0.317828
  H       3.739873     -0.142127      0.263115
  H       5.325852     -0.080511     -0.842188
  H       5.312874      0.983383      0.300386
>
9
Coordinates from ORCA-job orca Relaxed Surface Scan Step 13 E -576.747678115402
  C       0.305547      0.267580     -0.245352
  Cl      2.699455     -1.191624      0.581877
  H       0.032760     -0.533428     -0.923124
  H       0.860208      1.122951     -0.613209
  H      -0.067814      0.264044      0.772506
  O       4.750652      0.602755     -0.175435
  H       3.721448     -0.298586      0.204085
  H       5.361485      0.262374     -0.843431
  H       5.290259      0.931945      0.556434
>
9
Coordinates from ORCA-job orca Relaxed Surface Scan Step 14 E -576.742492670782
  C       0.257805      0.279829     -0.253100
  Cl      2.738871     -1.232944      0.587409
  H      -0.020430     -0.530742     -0.918191
  H       0.817867      1.126006     -0.635789
  H      -0.096015      0.284294      0.772364
  O       4.788986      0.607300     -0.170183
  H       3.735436     -0.340927      0.219913
  H       5.403376      0.287909     -0.844338
  H       5.328104      0.947287      0.556266
>
9
Coordinates from ORCA-job orca Relaxed Surface Scan Step 15 E -576.737854942299
  C       0.206916      0.290192     -0.260613
  Cl      2.781258     -1.259626      0.604532
  H      -0.062197     -0.523867     -0.926068
  H       0.768979      1.136956     -0.640683
  H      -0.141704      0.288897      0.767192
  O       4.828041      0.612252     -0.171269
  H       3.760674     -0.369995      0.235856
  H       5.443189      0.296697     -0.846066
  H       5.368844      0.956504      0.551468
>
9
Coordinates from ORCA-job orca Relaxed Surface Scan Step 16 E -576.733710213225
  C       0.157993      0.300818     -0.268134
  Cl      2.823063     -1.288458      0.624642
  H      -0.101719     -0.515280     -0.935623
  H       0.721010      1.149777     -0.643284
  H      -0.188361      0.291948      0.760917
  O       4.866055      0.615063     -0.172633
  H       3.786118     -0.400477      0.252924
  H       5.482220      0.305781     -0.848921
  H       5.407621      0.968838      0.544463
>
9
Coordinates from ORCA-job orca Relaxed Surface Scan Step 17 E -576.730012285258
  C       0.106005      0.310487     -0.275427
  Cl      2.865911     -1.315045      0.638132
  H      -0.149455     -0.509924     -0.939989
  H       0.666711      1.160481     -0.653007
  H      -0.233736      0.299251      0.756279
  O       4.907620      0.616837     -0.170739
  H       3.816963     -0.427877      0.266992
  H       5.524322      0.316318     -0.850068
  H       5.449658      0.977482      0.542176
>
9
Coordinates from ORCA-job orca Relaxed Surface Scan Step 18 E -576.726727149344
  C       0.046574      0.318568     -0.282442
  Cl      2.909564     -1.330781      0.648318
  H      -0.200844     -0.506758     -0.944625
  H       0.599918      1.172876     -0.662256
  H      -0.285393      0.302438      0.752155
  O       4.956802      0.616804     -0.168004
  H       3.854334     -0.445840      0.277677
  H       5.573338      0.320463     -0.848999
  H       5.499706      0.980240      0.542526
>
9
Coordinates from ORCA-job orca Relaxed Surface Scan Step 19 E -576.723814398421
  C      -0.014428      0.325675     -0.289054
  Cl      2.953681     -1.342728      0.659769
  H      -0.251444     -0.502713     -0.951827
  H       0.529629      1.186723     -0.668141
  H      -0.341300      0.302255      0.747414
  O       5.008249      0.617334     -0.166863
  H       3.892735     -0.460528      0.287893
  H       5.624922      0.320298     -0.847171
  H       5.551956      0.981694      0.542330
>
9
Coordinates from ORCA-job orca Relaxed Surface Scan Step 20 E -576.721236974877
  C      -0.077576      0.332089     -0.295279
  Cl      2.998262     -1.354329      0.663693
  H      -0.310072     -0.502091     -0.952925
  H       0.456416      1.196685     -0.681538
  H      -0.393964      0.308236      0.744782
  O       5.062126      0.618521     -0.163196
  H       3.933341     -0.473670      0.294657
  H       5.679592      0.322073     -0.842809
  H       5.605875      0.980496      0.546965
>
9
Coordinates from ORCA-job orca Relaxed Surface Scan Step 21 E -576.718962040640
  C      -0.141532      0.338002     -0.301270
  Cl      3.043183     -1.364504      0.665768
  H      -0.370623     -0.502212     -0.952913
  H       0.382219      1.205471     -0.695907
  H      -0.447281      0.315309      0.742312
  O       5.116969      0.619604     -0.158883
  H       3.975145     -0.485032      0.300219
  H       5.735089      0.323534     -0.837866
  H       5.660832      0.977838      0.552891
>
9
Coordinates from ORCA-job orca Relaxed Surface Scan Step 22 E -576.716956614895
  C      -0.209024      0.343092     -0.306923
  Cl      3.087998     -1.370710      0.663172
  H      -0.435615     -0.504635     -0.950122
  H       0.302264      1.212986     -0.713189
  H      -0.501751      0.323897      0.740751
  O       5.176050      0.620255     -0.153183
  H       4.019306     -0.493143      0.303194
  H       5.795110      0.323816     -0.830965
  H       5.719662      0.972452      0.561615
>
9
Coordinates from ORCA-job orca Relaxed Surface Scan Step 23 E -576.715188294223
  C      -0.279263      0.347484     -0.312357
  Cl      3.132507     -1.373211      0.657607
  H      -0.503144     -0.508607     -0.945793
  H       0.217464      1.219827     -0.731940
  H      -0.557591      0.332945      0.739574
  O       5.238543      0.620386     -0.146407
  H       4.065132     -0.498398      0.304485
  H       5.858271      0.323016     -0.823004
  H       5.782081      0.964568      0.572184
>
9
Coordinates from ORCA-job orca Relaxed Surface Scan Step 24 E -576.713630687113
  C      -0.347702      0.352063     -0.317666
  Cl      3.177383     -1.378073      0.649914
  H      -0.571305     -0.513444     -0.938689
  H       0.134535      1.224812     -0.753622
  H      -0.609749      0.345578      0.738760
  O       5.298778      0.620923     -0.138647
  H       4.110788     -0.504603      0.304899
  H       5.919270      0.324324     -0.814728
  H       5.842001      0.956432      0.584127
>
9
Coordinates from ORCA-job orca Relaxed Surface Scan Step 25 E -576.712257192386
  C      -0.415021      0.356658     -0.322900
  Cl      3.222399     -1.383081      0.643062
  H      -0.637810     -0.517569     -0.932256
  H       0.053130      1.229675     -0.773962
  H      -0.662165      0.357936      0.737344
  O       5.357605      0.621158     -0.131172
  H       4.156600     -0.510814      0.305590
  H       5.978843      0.325260     -0.806751
  H       5.900419      0.948787      0.595395
>
9
Coordinates from ORCA-job orca Relaxed Surface Scan Step 26 E -576.711046056036
  C      -0.482673      0.360944     -0.328151
  Cl      3.267104     -1.385123      0.639622
  H      -0.701554     -0.519661     -0.930026
  H      -0.028378      1.236338     -0.789147
  H      -0.718638      0.365748      0.734818
  O       5.416946      0.620409     -0.125148
  H       4.203013     -0.515550      0.307482
  H       6.038772      0.323106     -0.799444
  H       5.959408      0.941800      0.604346
>
9
Coordinates from ORCA-job orca Relaxed Surface Scan Step 27 E -576.709974037075
  C      -0.551184      0.364875     -0.333394
  Cl      3.311502     -1.384513      0.637068
  H      -0.764613     -0.521229     -0.929446
  H      -0.110957      1.243511     -0.802233
  H      -0.777582      0.371548      0.731819
  O       5.477424      0.619010     -0.119380
  H       4.250131     -0.518652      0.309601
  H       6.099364      0.319296     -0.792388
  H       6.019915      0.934164      0.612704
>
9
Coordinates from ORCA-job orca Relaxed Surface Scan Step 28 E -576.709022798878
  C      -0.621984      0.368312     -0.338242
  Cl      3.355620     -1.382464      0.627714
  H      -0.833617     -0.525715     -0.923277
  H      -0.196656      1.247013     -0.820874
  H      -0.834589      0.382572      0.729889
  O       5.540792      0.617706     -0.111355
  H       4.298516     -0.520346      0.308567
  H       6.163486      0.316773     -0.783019
  H       6.082432      0.924158      0.624947
>
9
Coordinates from ORCA-job orca Relaxed Surface Scan Step 29 E -576.708180326456
  C      -0.695983      0.370933     -0.343259
  Cl      3.398614     -1.373441      0.620561
  H      -0.901698     -0.529198     -0.921261
  H      -0.287860      1.252808     -0.835192
  H      -0.896629      0.387874      0.727290
  O       5.608417      0.614782     -0.104055
  H       4.348264     -0.518157      0.308253
  H       6.231051      0.309796     -0.773842
  H       6.149824      0.912614      0.635856
>
9
Coordinates from ORCA-job orca Relaxed Surface Scan Step 30 E -576.707426879185
  C      -0.768906      0.373572     -0.348267
  Cl      3.441561     -1.364174      0.615266
  H      -0.967443     -0.531568     -0.921161
  H      -0.378118      1.259473     -0.847275
  H      -0.959002      0.391406      0.724312
  O       5.674905      0.611267     -0.097555
  H       4.397598     -0.515776      0.308511
  H       6.297713      0.301591     -0.764930
  H       6.215693      0.902220      0.645451
>
9
Coordinates from ORCA-job orca Relaxed Surface Scan Step 31 E -576.706750556828
  C      -0.842781      0.375930     -0.353170
  Cl      3.484218     -1.353150      0.607558
  H      -1.034835     -0.534893     -0.919418
  H      -0.470769      1.265030     -0.861001
  H      -1.020331      0.396213      0.721620
  O       5.742671      0.607515     -0.090129
  H       4.447584     -0.512179      0.307631
  H       6.365528      0.293324     -0.755258
  H       6.282715      0.890219      0.656519
>
9
Coordinates from ORCA-job orca Relaxed Surface Scan Step 32 E -576.706141380378
  C      -0.915271      0.378564     -0.357966
  Cl      3.527117     -1.344597      0.596897
  H      -1.103024     -0.539593     -0.913898
  H      -0.562891      1.268442     -0.878474
  H      -1.077301      0.405322      0.719224
  O       5.808654      0.604210     -0.081137
  H       4.497232     -0.509747      0.305725
  H       6.431351      0.288150     -0.745450
  H       6.348134      0.877259      0.669428
>
9
Coordinates from ORCA-job orca Relaxed Surface Scan Step 33 E -576.705590044860
  C      -0.988988      0.380937     -0.362658
  Cl      3.569585     -1.333561      0.584325
  H      -1.171242     -0.545153     -0.907296
  H      -0.658702      1.271371     -0.896700
  H      -1.134299      0.415048      0.716789
  O       5.876298      0.600379     -0.071565
  H       4.547588     -0.505844      0.302891
  H       6.498888      0.281964     -0.734776
  H       6.414873      0.862869      0.683338
>
9
Coordinates from ORCA-job orca Relaxed Surface Scan Step 34 E -576.705088980869
  C      -1.061387      0.383715     -0.367039
  Cl      3.612554     -1.326458      0.564748
  H      -1.242536     -0.553605     -0.892629
  H      -0.755660      1.269889     -0.922504
  H      -1.183145      0.433315      0.714792
  O       5.942102      0.597506     -0.058953
  H       4.597756     -0.503824      0.297347
  H       6.564931      0.281001     -0.722784
  H       6.479386      0.846470      0.701372
>
9
Coordinates from ORCA-job orca Relaxed Surface Scan Step 35 E -576.704633475814
  C      -1.132914      0.386395     -0.371887
  Cl      3.655077     -1.316014      0.554476
  H      -1.305852     -0.557932     -0.887724
  H      -0.852392      1.273804     -0.938678
  H      -1.237622      0.441827      0.711505
  O       6.007102      0.593067     -0.050045
  H       4.647448     -0.500402      0.295571
  H       6.629850      0.274059     -0.712676
  H       6.543303      0.833206      0.713807
>
9
Coordinates from ORCA-job orca Relaxed Surface Scan Step 36 E -576.704216962848
  C      -1.205178      0.388725     -0.376925
  Cl      3.697108     -1.302405      0.546224
  H      -1.368303     -0.561342     -0.885471
  H      -0.950235      1.278387     -0.952299
  H      -1.294121      0.447724      0.707740
  O       6.073167      0.587893     -0.041600
  H       4.697618     -0.495407      0.294660
  H       6.695056      0.265365     -0.703273
  H       6.608888      0.819069      0.725294
>
9
Coordinates from ORCA-job orca Relaxed Surface Scan Step 37 E -576.703834098917
  C      -1.276945      0.390900     -0.382151
  Cl      3.738945     -1.287023      0.542002
  H      -1.428173     -0.562729     -0.887780
  H      -1.047265      1.284830     -0.961618
  H      -1.352599      0.449382      0.703591
  O       6.138769      0.581847     -0.034796
  H       4.747583     -0.489614      0.295253
  H       6.759782      0.253770     -0.694504
  H       6.673903      0.806646      0.734352
>
9
Coordinates from ORCA-job orca Relaxed Surface Scan Step 38 E -576.703481191378
  C      -1.347803      0.393104     -0.387470
  Cl      3.780771     -1.271385      0.540284
  H      -1.486455     -0.562649     -0.892774
  H      -1.142594      1.292156     -0.968266
  H      -1.411615      0.448693      0.699218
  O       6.203274      0.575425     -0.029164
  H       4.797289     -0.483865      0.296744
  H       6.823661      0.240793     -0.686107
  H       6.737471      0.795736      0.741886
>
9
Coordinates from ORCA-job orca Relaxed Surface Scan Step 39 E -576.703154794267
  C      -1.417495      0.395534     -0.393109
  Cl      3.822331     -1.256400      0.542054
  H      -1.542527     -0.560962     -0.900623
  H      -1.236460      1.300800     -0.972373
  H      -1.470534      0.445355      0.694464
  O       6.266332      0.568521     -0.024513
  H       4.846325     -0.478888      0.299841
  H       6.885920      0.227317     -0.678773
  H       6.800108      0.786731      0.747381
>
9
Coordinates from ORCA-job orca Relaxed Surface Scan Step 40 E -576.702851542295
  C      -1.487012      0.397734     -0.398562
  Cl      3.864283     -1.240598      0.542254
  H      -1.599791     -0.559505     -0.907591
  H      -1.330278      1.308038     -0.977070
  H      -1.528064      0.443327      0.689737
  O       6.329209      0.561984     -0.019616
  H       4.895658     -0.472969      0.302003
  H       6.947974      0.213422     -0.670724
  H       6.862021      0.776576      0.753920
>
9
Coordinates from ORCA-job orca Relaxed Surface Scan Step 41 E -576.702568973661
  C      -1.556495      0.399683     -0.404404
  Cl      3.905809     -1.221965      0.547613
  H      -1.654318     -0.555541     -0.920311
  H      -1.424604      1.317766     -0.976822
  H      -1.587825      0.435619      0.684604
  O       6.392273      0.554225     -0.016595
  H       4.944901     -0.465843      0.306323
  H       7.009773      0.195914     -0.663568
  H       6.924487      0.768153      0.757509
>
9
Coordinates from ORCA-job orca Relaxed Surface Scan Step 42 E -576.702304887893
  C      -1.624947      0.401610     -0.410619
  Cl      3.947230     -1.202436      0.558251
  H      -1.706294     -0.548710     -0.938346
  H      -1.517741      1.329766     -0.971879
  H      -1.648116      0.422650      0.678996
  O       6.454093      0.545764     -0.015839
  H       4.993759     -0.458634      0.312775
  H       7.070466      0.175070     -0.656827
  H       6.985549      0.762931      0.757839
>
9
Coordinates from ORCA-job orca Relaxed Surface Scan Step 43 E -576.702060141465
  C      -1.699509      0.399215     -0.425742
  Cl      3.979065     -1.125948      0.668458
  H      -1.709514     -0.490032     -1.056132
  H      -1.639285      1.388306     -0.879599
  H      -1.747599      0.299118      0.658692
  O       6.525956      0.509418     -0.050798
  H       5.044118     -0.433372      0.363133
  H       7.138720      0.081851     -0.658852
  H       7.062048      0.799452      0.695190
>
9
Coordinates from ORCA-job orca Relaxed Surface Scan Step 44 E -576.701827785166
  C      -1.750690      0.402986     -0.433308
  Cl      4.026681     -1.122090      0.704792
  H      -1.739821     -0.468849     -1.087570
  H      -1.711241      1.405548     -0.859203
  H      -1.798070      0.270945      0.647727
  O       6.566348      0.509211     -0.063520
  H       5.084112     -0.428124      0.376869
  H       7.176848      0.054612     -0.654077
  H       7.099832      0.803771      0.682640
>
9
Coordinates from ORCA-job orca Relaxed Surface Scan Step 45 E -576.701609151012
  C      -1.830260      0.402665     -0.438884
  Cl      4.064561     -1.079885      0.702433
  H      -1.801364     -0.458946     -1.106038
  H      -1.825654      1.411809     -0.850801
  H      -1.861423      0.254397      0.640656
  O       6.643195      0.494172     -0.059018
  H       5.138329     -0.410719      0.377617
  H       7.251642      0.023679     -0.639075
  H       7.174975      0.790839      0.687461
>
9
Coordinates from ORCA-job orca Relaxed Surface Scan Step 46 E -576.701402811962
  C      -1.896664      0.404705     -0.445625
  Cl      4.105880     -1.058236      0.716200
  H      -1.850542     -0.444137     -1.128008
  H      -1.923370      1.420724     -0.839530
  H      -1.913453      0.236593      0.631320
  O       6.702352      0.483424     -0.059333
  H       5.186450     -0.403147      0.385737
  H       7.309222      0.000009     -0.630316
  H       7.234124      0.788076      0.683905
>
9
Coordinates from ORCA-job orca Relaxed Surface Scan Step 47 E -576.701207270425
  C      -1.962107      0.406805     -0.451636
  Cl      4.148353     -1.039771      0.724008
  H      -1.903141     -0.432009     -1.145372
  H      -2.019405      1.426442     -0.832600
  H      -1.961792      0.225417      0.623316
  O       6.760803      0.474907     -0.058542
  H       5.234114     -0.395890      0.390506
  H       7.366439     -0.021339     -0.619705
  H       7.290735      0.783447      0.684375
>
9
Coordinates from ORCA-job orca Relaxed Surface Scan Step 48 E -576.701022213363
  C      -2.027283      0.409231     -0.457840
  Cl      4.190264     -1.023619      0.731336
  H      -1.957465     -0.420768     -1.161097
  H      -2.111888      1.431392     -0.826902
  H      -2.010097      0.216277      0.614948
  O       6.817905      0.465594     -0.055968
  H       5.282152     -0.391131      0.396320
  H       7.422551     -0.038611     -0.611046
  H       7.347861      0.779645      0.684601
>
9
Coordinates from ORCA-job orca Relaxed Surface Scan Step 49 E -576.700845825283
  C      -2.089622      0.412087     -0.463449
  Cl      4.233856     -1.014958      0.734751
  H      -2.013635     -0.413684     -1.171036
  H      -2.197069      1.434062     -0.827082
  H      -2.055749      0.215097      0.608215
  O       6.871577      0.460149     -0.052399
  H       5.328846     -0.388305      0.399755
  H       7.474963     -0.050102     -0.603290
  H       7.400833      0.773662      0.688885
>
9
Coordinates from ORCA-job orca Relaxed Surface Scan Step 50 E -576.700678009239
  C      -2.155503      0.414688     -0.468136
  Cl      4.276547     -1.004675      0.726381
  H      -2.077318     -0.412485     -1.173853
  H      -2.284459      1.433452     -0.833794
  H      -2.102419      0.222371      0.603604
  O       6.929805      0.454639     -0.044533
  H       5.377334     -0.384993      0.398392
  H       7.532539     -0.058317     -0.593585
  H       7.457473      0.763330      0.699874
>
9
Coordinates from ORCA-job orca Relaxed Surface Scan Step 51 E -576.700518014910
  C      -2.218460      0.418000     -0.472476
  Cl      4.320452     -1.002709      0.715766
  H      -2.141473     -0.414852     -1.171621
  H      -2.365417      1.431633     -0.845527
  H      -2.146195      0.236529      0.600040
  O       6.983897      0.451676     -0.035453
  H       5.424676     -0.385334      0.396112
  H       7.586691     -0.059960     -0.585653
  H       7.509830      0.753028      0.713163
>
9
Coordinates from ORCA-job orca Relaxed Surface Scan Step 52 E -576.700365325744
  C      -2.282980      0.421458     -0.475813
  Cl      4.364413     -1.003703      0.692323
  H      -2.213724     -0.425263     -1.158929
  H      -2.446220      1.425820     -0.866764
  H      -2.186788      0.263179      0.598503
  O       7.039960      0.450787     -0.021359
  H       5.472895     -0.386468      0.388376
  H       7.643089     -0.054456     -0.577021
  H       7.563353      0.736656      0.735033
>
9
Coordinates from ORCA-job orca Relaxed Surface Scan Step 53 E -576.700219450390
  C      -2.346315      0.425111     -0.479195
  Cl      4.408696     -1.006999      0.669230
  H      -2.286819     -0.436069     -1.144941
  H      -2.524594      1.419596     -0.888398
  H      -2.225373      0.291191      0.595938
  O       7.094252      0.450281     -0.006943
  H       5.520736     -0.389061      0.381129
  H       7.698061     -0.046912     -0.569060
  H       7.615358      0.720872      0.756590
