
                                 *****************
                                 * O   R   C   A *
                                 *****************

                                            #,                                       
                                            ###                                      
                                            ####                                     
                                            #####                                    
                                            ######                                   
                                           ########,                                 
                                     ,,################,,,,,                         
                               ,,#################################,,                 
                          ,,##########################################,,             
                       ,#########################################, ''#####,          
                    ,#############################################,,   '####,        
                  ,##################################################,,,,####,       
                ,###########''''           ''''###############################       
              ,#####''   ,,,,##########,,,,          '''####'''          '####       
            ,##' ,,,,###########################,,,                        '##       
           ' ,,###''''                  '''############,,,                           
         ,,##''                                '''############,,,,        ,,,,,,###''
      ,#''                                            '''#######################'''  
     '                                                          ''''####''''         
             ,#######,   #######,   ,#######,      ##                                
            ,#'     '#,  ##    ##  ,#'     '#,    #''#        ,####,   ,####,        
            ##       ##  ##   ,#'  ##            #'  '#       #'       #'  '#        
            ##       ##  #######   ##           ,######,      #####,   #    #        
            '#,     ,#'  ##    ##  '#,     ,#' ,#      #,     #,   #   #,  ,#        
             '#######'   ##     ##  '#######'  #'      '#     '####' # '####'        



                #########################################################
                #                        -***-                          #
                #          Department of theory and spectroscopy        #
                #                                                       #
                #                      Frank Neese                      #
                #                                                       #
                #     Directorship, Architecture, Infrastructure        #
                #                    SHARK, DRIVERS                     #
                #        Core code/Algorithms in most modules           #
                #                                                       #
                #        Max Planck Institute fuer Kohlenforschung      #
                #                Kaiser Wilhelm Platz 1                 #
                #                 D-45470 Muelheim/Ruhr                 #
                #                      Germany                          #
                #                                                       #
                #                  All rights reserved                  #
                #                        -***-                          #
                #########################################################


                         Program Version 6.0.1  -  RELEASE   -


 With contributions from (in alphabetic order):
[Max-Planck-Institut fuer Kohlenforschung]                               
  Daniel Aravena         : Magnetic Suceptibility                        
  Michael Atanasov       : Ab Initio Ligand Field Theory (pilot matlab implementation)
  Alexander A. Auer      : GIAO ZORA, VPT2 properties, NMR spectrum      
  Ute Becker             : All parallelization in ORCA, NUMFREQ, NUMCALC 
  Giovanni Bistoni       : ED, misc. LED, open-shell LED, HFLD           
  Martin Brehm           : Molecular dynamics                            
  Dmytro Bykov           : pre 5.0 version of the SCF Hessian            
  Marcos Casanova-Páez   : Triplet and SCS-CIS(D). UHF-(DLPNO)-IP/EA/STEOM-CCSD. UHF-CVS-IP/STEOM-CCSD   
  Vijay G. Chilkuri      : MRCI spin determinant printing, contributions to CSF-ICE 
  Pauline Colinet        : FMM embedding                                 
  Dipayan Datta          : RHF DLPNO-CCSD density                        
  Achintya Kumar Dutta   : EOM-CC, STEOM-CC                              
  Nicolas Foglia         : Exact transition moments, OPA infrastructure, MCD improvements    
  Dmitry Ganyushin       : Spin-Orbit,Spin-Spin,Magnetic field MRCI      
  Miquel Garcia-Rates    : C-PCM and meta-GGA Hessian, CCSD/C-PCM, Gaussian charge scheme 
  Tiago L. C. Gouveia    : GS-ROHF, GS-ROCIS                             
  Yang Guo               : DLPNO-NEVPT2, F12-NEVPT2, CIM, IAO-localization        
  Andreas Hansen         : Spin unrestricted coupled pair/coupled cluster methods 
  Ingolf Harden          : AUTO-CI MPn and infrastructure                
  Benjamin Helmich-Paris : MC-RPA, TRAH-(SCF,CASSCF), AVAS, COSX integrals, SCF dyn. polar. 
  Lee Huntington         : MR-EOM, pCC                                   
  Robert Izsak           : Overlap fitted RIJCOSX, COSX-SCS-MP3, EOM     
  Riya Kayal             : Wick's Theorem for AUTO-CI, AUTO-CI UHF-CCSDT 
  Emily Kempfer          : AUTO-CI, RHF CISDT and CCSDT                  
  Christian Kollmar      : KDIIS, OOCD, Brueckner-CCSD(T), CCSD density, CASPT2, CASPT2-K, improved NEVPT2 
  Axel Koslowski         : Symmetry handling                             
  Simone Kossmann        : meta-GGA functionals, TD-DFT gradient, OOMP2, (MP2 Hessian; deprecated post 5.0) 
  Lucas Lang             : DCDCAS                                        
  Marvin Lechner         : AUTO-CI (C++ implementation), FIC-MRCC        
  Spencer Leger          : CASSCF response                               
  Dagmar Lenk            : GEPOL surface, SMD, ORCA-2-JSON               
  Dimitrios Liakos       : Extrapolation schemes; Compound Job, initial MDCI parallelization 
  Dimitrios Manganas     : Further ROCIS development; embedding schemes. LFT, Crystal Embedding 
  Dimitrios Pantazis     : SARC Basis sets                               
  Anastasios Papadopoulos: AUTO-CI, single reference methods and gradients 
  Taras Petrenko         : pre 6.0 DFT Hessian and TD-DFT gradient, (ASA, deprecated), ECA, 1-Electron XAS/XES, NRVS 
  Peter Pinski           : DLPNO-MP2, DLPNO-MP2 Gradient                 
  Christoph Reimann      : Effective Core Potentials                     
  Marius Retegan         : Local ZFS, SOC                                
  Christoph Riplinger    : Optimizer, TS searches, QM/MM, DLPNO-CCSD(T), (RO)-DLPNO pert. Triples 
  Michael Roemelt        : Original ROCIS implementation                 
  Masaaki Saitow         : Open-shell DLPNO-CCSD energy and density      
  Barbara Sandhoefer     : DKH picture change effects                    
  Kantharuban Sivalingam : CASSCF convergence/infrastructure, NEVPT2 and variants, FIC-MRCI 
  Bernardo de Souza      : ESD, SOC TD-DFT                               
  Georgi L. Stoychev     : AutoAux, RI-MP2 NMR, DLPNO-MP2 response, X2C  
  Van Anh Tran           : RI-MP2 g-tensors                              
  Willem Van den Heuvel  : Paramagnetic NMR                              
  Zikuan Wang            : NOTCH, Electric field optimization            
  Frank Wennmohs         : Technical directorship and infrastructure     
  Hang Xu                : AUTO-CI-Response properties                   
                                                                         
[FACCTs GmbH]                                                            
  Markus Bursch, Miquel Garcia-Rates, Christoph Riplinger, Bernardo de Souza, Georgi L. Stoychev 
                                                                 
  APM, Basis sets (HGBS, AHGBS, def-TZVP (Ac-Lr), def2-XVPD (La-Lu)), CI-OPT, improved COSX, DLPNO-Multilevel,           
  DOCKER, DRACO, updates on ESD, GOAT, IRC, LR-CPCM, MBIS, meta-GGA TD-DFT gradient, ML-optimized integration grids, 
  MM, NACMEs, nearIR, NEB, NEB-TS, NL-DFT gradient (VV10), 2- and 3-layer-ONIOM, interface openCOSMO-RS, QMMM,   
  Crystal-QMMM, SF, symmetry and pop. for TD-DFT, r2SCAN hybrids, SOLVATOR                                   
                                                                         
[Other institutions]                                                     
  V. Asgeirsson          : NEB                                           
  Christoph Bannwarth    : sTDA-DFT, sTD-DFT, PBEh-3c, B97-3c, D3        
  Sebastian Ehlert       : rSCAN, r2SCAN, r2SCAN-3c, D4, dhf basis sets  
  Marvin Friede          : D4 for Fr, Ra, Ac-Lr                          
  Lars Goerigk           : TD-DFT with DH, B97 family of functionals     
  Stefan Grimme          : VdW corrections, initial TS optimization, DFT functionals, gCP, sTDA/sTD-DF 
  Waldemar Hujo          : DFT-NL                                        
  H. Jonsson             : NEB                                           
  Holger Kruse           : gCP                                           
  Marcel Mueller         : wB97X-3c, vDZP basis set                      
  Hagen Neugebauer       : wr2SCAN                                       
  Tobias Risthaus        : range-separated hybrid DFT                    
  Lukas Wittmann         : regularized MP2, r2SCAN double-hybrids, wr2SCAN        
                                                                         
We gratefully acknowledge several colleagues who have allowed us to      
interface, adapt or use parts of their codes:                            
  Ed Valeev, F. Pavosevic, A. Kumar             : LibInt (2-el integral package), F12 methods 
  Garnet Chan, S. Sharma, J. Yang, R. Olivares  : DMRG                   
  Ulf Ekstrom                                   : XCFun DFT Library      
  Mihaly Kallay                                 : mrcc  (arbitrary order and MRCC methods)
  Frank Weinhold                                : gennbo (NPA and NBO analysis)           
  Simon Mueller                                 : openCOSMO-RS                            
  Christopher J. Cramer and Donald G. Truhlar   : smd solvation model                     
  S Lehtola, MJT Oliveira, MAL Marques          : LibXC Library                           
  Liviu Ungur et al                             : ANISO software                          


 Your calculation uses the libint2 library for the computation of 2-el integrals
 For citations please refer to: http://libint.valeyev.net

 Your ORCA version has been built with support for libXC version: 6.2.2
 For citations please refer to: https://libxc.gitlab.io

 This ORCA versions uses:
   CBLAS   interface :  Fast vector & matrix operations
   LAPACKE interface :  Fast linear algebra routines
   SCALAPACK package :  Parallel linear algebra routines
   Shared memory     :  Shared parallel matrices
   BLAS/LAPACK       :  OpenBLAS 0.3.27  USE64BITINT DYNAMIC_ARCH NO_AFFINITY Zen SINGLE_THREADED
        Core in use  :  Zen
   Copyright (c) 2011-2014, The OpenBLAS Project




***************************************
The coordinates will be read from file: /temp180/bsavoie2/emille35/mlip_alchemy/sn1_scans/ch3cl_h3o/scan_to_7/uwb97mv-tzvpd/orca.allxyz
***************************************


****
**** There are 53 structures found in the file
****
Your calculation utilizes the DFT-NL dispersion correction.
Cite in your paper:
Vydrov, O. A.; Van Voorhis, T. J. Chem. Phys. 2010, 133, 244103
Hujo, W.; Grimme, S. J. Chem. Theory Comput. 2011, 7, 3866 
   

Warning: RI is on but no J-basis has been assigned. Assigning Def2/J (nothing to worry about!)
================================================================================

----- Orbital basis set information -----
Your calculation utilizes the basis: def2-TZVPD
   F. Weigend and R. Ahlrichs, Phys. Chem. Chem. Phys. 7, 3297 (2005).
   D. Rappoport and F. Furche, J. Chem. Phys. 133, 134105 (2010)
   D. Rappoport, J. Chem. Phys. 155, 124102 (2021).

----- AuxJ basis set information -----
Your calculation utilizes the auxiliary basis: def2/J
   F. Weigend, Phys. Chem. Chem. Phys. 8, 1057 (2006).

================================================================================
                                        WARNINGS
                       Please study these warnings very carefully!
================================================================================


WARNING: B97M-V or wB97M-V functional requested.
  ===> : libXC variant has now been activated.
         Any manually given DFX/HFX/RangeSep scaling parameters are IGNORED!


================================================================================
                                       INPUT FILE
================================================================================
NAME = orca.inp
|  1> ! RKS wB97M-V def2-TZVPD PAL2
|  2> 
|  3> * xyzfile 1 1 /temp180/bsavoie2/emille35/mlip_alchemy/sn1_scans/ch3cl_h3o/scan_to_7/uwb97mv-tzvpd/orca.allxyz
|  4> 
|  5>                          ****END OF INPUT****
================================================================================

                      *********************************
                      * Multiple XYZ Scan Calculation *
                      *********************************

Multiple XYZ scan settings:
    -> SCF surface will be mapped

There are 53 structures to be calculated

         *************************************************************
                               MULTIPLE XYZ STEP   1
         *************************************************************
---------------------------------
CARTESIAN COORDINATES (ANGSTROEM)
---------------------------------
  C      0.856751    0.105447   -0.055900
  Cl     2.109353   -0.625179    0.831329
  H      0.921713   -0.178457   -1.101662
  H      0.900411    1.184889    0.050673
  H     -0.083802   -0.253395    0.351405
  O      4.691948    0.199113   -0.070608
  H      3.693747   -0.050441    0.195813
  H      4.945435   -0.088164   -0.965764
  H      4.918443    1.134198    0.079063

----------------------------
CARTESIAN COORDINATES (A.U.)
----------------------------
  NO LB      ZA    FRAG     MASS         X           Y           Z
   0 C     6.0000    0    12.011    1.619025    0.199266   -0.105636
   1 Cl   17.0000    0    35.453    3.986099   -1.181417    1.570984
   2 H     1.0000    0     1.008    1.741785   -0.337235   -2.081839
   3 H     1.0000    0     1.008    1.701530    2.239116    0.095758
   4 H     1.0000    0     1.008   -0.158363   -0.478847    0.664059
   5 O     8.0000    0    15.999    8.866497    0.376269   -0.133430
   6 H     1.0000    0     1.008    6.980170   -0.095320    0.370033
   7 H     1.0000    0     1.008    9.345518   -0.166606   -1.825029
   8 H     1.0000    0     1.008    9.294510    2.143324    0.149407

--------------------------------
INTERNAL COORDINATES (ANGSTROEM)
--------------------------------
 C      0   0   0     0.000000000000     0.00000000     0.00000000
 Cl     1   0   0     1.700000417859     0.00000000     0.00000000
 H      1   2   0     1.085559626784   110.25955890     0.00000000
 H      1   2   3     1.085568529063   110.27242289   237.54927532
 H      1   2   3     1.085958051583   107.48193132   118.77612921
 O      2   1   3     2.857051729888   112.16587389    61.58675934
 H      6   2   1     1.062855862551     5.23886249   359.51008450
 H      6   2   1     0.973698104257   116.13117433   293.18574529
 H      6   2   1     0.973696744624   116.02815612    66.88601813

---------------------------
INTERNAL COORDINATES (A.U.)
---------------------------
 C      0   0   0     0.000000000000     0.00000000     0.00000000
 Cl     1   0   0     3.212535217305     0.00000000     0.00000000
 H      1   2   0     2.051410396664   110.25955890     0.00000000
 H      1   2   3     2.051427219534   110.27242289   237.54927532
 H      1   2   3     2.052163310419   107.48193132   118.77612921
 O      2   1   3     5.399045319935   112.16587389    61.58675934
 H      6   2   1     2.008506500053     5.23886249   359.51008450
 H      6   2   1     1.840022754164   116.13117433   293.18574529
 H      6   2   1     1.840020184830   116.02815612    66.88601813

---------------------
BASIS SET INFORMATION
---------------------
There are 4 groups of distinct atoms

 Group   1 Type C   : 12s6p3d1f contracted to 6s3p3d1f pattern {621111/411/111/1}
 Group   2 Type Cl  : 15s10p4d1f contracted to 6s6p3d1f pattern {732111/511111/211/1}
 Group   3 Type H   : 5s2p contracted to 3s2p pattern {311/11}
 Group   4 Type O   : 12s7p3d1f contracted to 6s4p3d1f pattern {621111/4111/111/1}

Atom   0C    basis set group =>   1
Atom   1Cl   basis set group =>   2
Atom   2H    basis set group =>   3
Atom   3H    basis set group =>   3
Atom   4H    basis set group =>   3
Atom   5O    basis set group =>   4
Atom   6H    basis set group =>   3
Atom   7H    basis set group =>   3
Atom   8H    basis set group =>   3
---------------------------------
AUXILIARY/J BASIS SET INFORMATION
---------------------------------
There are 4 groups of distinct atoms

 Group   1 Type C   : 12s5p4d2f1g contracted to 6s4p3d1f1g pattern {711111/2111/211/2/1}
 Group   2 Type Cl  : 14s5p5d2f1g contracted to 8s4p3d1f1g pattern {71111111/2111/311/2/1}
 Group   3 Type H   : 5s2p1d contracted to 3s1p1d pattern {311/2/1}
 Group   4 Type O   : 12s5p4d2f1g contracted to 6s4p3d1f1g pattern {711111/2111/211/2/1}

Atom   0C    basis set group =>   1
Atom   1Cl   basis set group =>   2
Atom   2H    basis set group =>   3
Atom   3H    basis set group =>   3
Atom   4H    basis set group =>   3
Atom   5O    basis set group =>   4
Atom   6H    basis set group =>   3
Atom   7H    basis set group =>   3
Atom   8H    basis set group =>   3


           ************************************************************
           *        Program running with 2 parallel MPI-processes     *
           *              working on a common directory               *
           ************************************************************
------------------------------------------------------------------------------
                             ORCA STARTUP CALCULATIONS
                           -- RI-GTO INTEGRALS CHOSEN --
------------------------------------------------------------------------------
------------------------------------------------------------------------------
                   ___                                                        
                  /   \      - P O W E R E D   B Y -                         
                 /     \                                                     
                 |  |  |   _    _      __       _____    __    __             
                 |  |  |  | |  | |    /  \     |  _  \  |  |  /  |          
                  \  \/   | |  | |   /    \    | | | |  |  | /  /          
                 / \  \   | |__| |  /  /\  \   | |_| |  |  |/  /          
                |  |  |   |  __  | /  /__\  \  |    /   |      \           
                |  |  |   | |  | | |   __   |  |    \   |  |\   \          
                \     /   | |  | | |  |  |  |  | |\  \  |  | \   \       
                 \___/    |_|  |_| |__|  |__|  |_| \__\ |__|  \__/        
                                                                              
                      - O R C A' S   B I G   F R I E N D -                    
                                      &                                       
                       - I N T E G R A L  F E E D E R -                       
                                                                              
 v1 FN, 2020, v2 2021, v3 2022-2024                                           
------------------------------------------------------------------------------


----------------------
SHARK INTEGRAL PACKAGE
----------------------

Number of atoms                             ...      9
Number of basis functions                   ...    177
Number of shells                            ...     73
Maximum angular momentum                    ...      3
Integral batch strategy                     ... SHARK/LIBINT Hybrid
RI-J (if used) integral strategy            ... SPLIT-RIJ (Revised 2003 algorithm where possible)
Printlevel                                  ...      1
Contraction scheme used                     ... SEGMENTED contraction
Prescreening option                         ... SCHWARTZ
   Thresh                                   ... 1.000e-10
   Tcut                                     ... 1.000e-11
   Tpresel                                  ... 1.000e-11 
Coulomb Range Separation                    ... NOT USED
Exchange Range Separation                   ... Long Range
   Mu parameter                             ... 3.000e-01
   Scaling (regular/separated)              ... 1.500e-01 8.500e-01
Multipole approximations                    ... NOT USED
Finite Nucleus Model                        ... NOT USED
CABS basis                                  ... NOT available
Auxiliary Coulomb fitting basis             ... AVAILABLE
   # of basis functions in Aux-J            ...    215
   # of shells in Aux-J                     ...     77
   Maximum angular momentum in Aux-J        ...      4
Auxiliary J/K fitting basis                 ... NOT available
Auxiliary Correlation fitting basis         ... NOT available
Auxiliary 'external' fitting basis          ... NOT available

Checking pre-screening integrals            ... done (  0.0 sec) Dimension = 73
Check shell pair data                       ... done (  0.0 sec)
Shell pair information
Shell pair cut-off parameter TPreSel        ...   1.0e-11
Total number of shell pairs                 ...      2701
Shell pairs after pre-screening             ...      2559
Total number of primitive shell pairs       ...      7001
Primitive shell pairs kept                  ...      5482
          la=0 lb=0:    617 shell pairs
          la=1 lb=0:    849 shell pairs
          la=1 lb=1:    318 shell pairs
          la=2 lb=0:    308 shell pairs
          la=2 lb=1:    218 shell pairs
          la=2 lb=2:     44 shell pairs
          la=3 lb=0:     99 shell pairs
          la=3 lb=1:     73 shell pairs
          la=3 lb=2:     27 shell pairs
          la=3 lb=3:      6 shell pairs

Calculating one electron integrals          ... done (  0.0 sec)
Calculating RI/J V-Matrix + Cholesky decomp.... done (  0.2 sec)
Calculating Nuclear repulsion               ... done (  0.0 sec) ENN=    115.737252840904 Eh

Diagonalization of the overlap matrix:
Smallest eigenvalue                        ... 3.344e-05
Time for diagonalization                   ...    0.002 sec
Threshold for overlap eigenvalues          ... 1.000e-07
Number of eigenvalues below threshold      ... 0
Time for construction of square roots      ...    0.046 sec
Total time needed                          ...    0.107 sec

-------------------
DFT GRID GENERATION
-------------------

General Integration Accuracy     IntAcc      ... 4.388
Radial Grid Type                 RadialGrid  ... OptM3 with GC (2021)
Angular Grid (max. ang.)         AngularGrid ... 4 (Lebedev-302)
Angular grid pruning method      GridPruning ... 4 (adaptive)
Weight generation scheme         WeightScheme... mBecke (2022)
Basis function cutoff            BFCut       ... 1.0000e-10
Integration weight cutoff        WCut        ... 1.0000e-14
Partially contracted basis set               ... off
Rotationally invariant grid construction     ... off
Angular grids for H and He will be reduced by one unit
Diffuse basis detected: some atoms will have their outermost
                        angular grid increased by 1.

Total number of grid points                  ...    41365
Total number of batches                      ...      651
Average number of points per batch           ...       63
Average number of grid points per atom       ...     4596

--------------------
COSX GRID GENERATION
--------------------

GRIDX 1
-------
General Integration Accuracy     IntAcc      ... 3.816
Radial Grid Type                 RadialGrid  ... OptM3 with GC (2021)
Angular Grid (max. ang.)         AngularGrid ... 1 (Lebedev-50)
Angular grid pruning method      GridPruning ... 4 (adaptive)
Weight generation scheme         WeightScheme... mBecke (2022)
Basis function cutoff            BFCut       ... 1.0000e-10
Integration weight cutoff        WCut        ... 1.0000e-14
Partially contracted basis set               ... on
Rotationally invariant grid construction     ... off
Angular grids for H and He will be reduced by one unit
Diffuse basis detected: some atoms will have their outermost
                        angular grid increased by 1.

Total number of grid points                  ...     6397
Total number of batches                      ...       53
Average number of points per batch           ...      120
Average number of grid points per atom       ...      711
UseSFitting                                  ... on

GRIDX 2
-------
General Integration Accuracy     IntAcc      ... 4.020
Radial Grid Type                 RadialGrid  ... OptM3 with GC (2021)
Angular Grid (max. ang.)         AngularGrid ... 2 (Lebedev-110)
Angular grid pruning method      GridPruning ... 4 (adaptive)
Weight generation scheme         WeightScheme... mBecke (2022)
Basis function cutoff            BFCut       ... 1.0000e-10
Integration weight cutoff        WCut        ... 1.0000e-14
Partially contracted basis set               ... on
Rotationally invariant grid construction     ... off
Angular grids for H and He will be reduced by one unit
Diffuse basis detected: some atoms will have their outermost
                        angular grid increased by 1.

Total number of grid points                  ...    11976
Total number of batches                      ...       98
Average number of points per batch           ...      122
Average number of grid points per atom       ...     1331
UseSFitting                                  ... on

GRIDX 3
-------
General Integration Accuracy     IntAcc      ... 4.338
Radial Grid Type                 RadialGrid  ... OptM3 with GC (2021)
Angular Grid (max. ang.)         AngularGrid ... 3 (Lebedev-194)
Angular grid pruning method      GridPruning ... 4 (adaptive)
Weight generation scheme         WeightScheme... mBecke (2022)
Basis function cutoff            BFCut       ... 1.0000e-10
Integration weight cutoff        WCut        ... 1.0000e-14
Partially contracted basis set               ... on
Rotationally invariant grid construction     ... off
Angular grids for H and He will be reduced by one unit
Diffuse basis detected: some atoms will have their outermost
                        angular grid increased by 1.

Total number of grid points                  ...    28010
Total number of batches                      ...      225
Average number of points per batch           ...      124
Average number of grid points per atom       ...     3112
UseSFitting                                  ... on
Initializing property integral containers    ... done (  0.2 sec)

SHARK setup successfully completed in   4.3 seconds

Maximum memory used throughout the entire STARTUP-calculation: 18.0 MB


           ************************************************************
           *        Program running with 2 parallel MPI-processes     *
           *              working on a common directory               *
           ************************************************************
-------------------------------------------------------------------------------
                                 ORCA GUESS
                   Start orbitals & Density for SCF / CASSCF
-------------------------------------------------------------------------------

------------
SCF SETTINGS
------------
Hamiltonian:
 Density Functional     Method          .... DFT(GTOs)
  Functional kind                       .... Exchange-Correlation
  Functional name                       .... wB97M-V exchange-correlation functional
  Functional family                     .... Hybrid MGGA
  Functional refs                              
    [ 0] N. Mardirossian and M. Head-Gordon.,  J. Chem. Phys. 144, 214110 (2016), doi: 10.1063/1.4952647
  Fraction of HF Exchange (short range) .... 0.1500
  Fraction of HF Exchange (long range)  .... 1.0000
  Range separation parameter mu         .... 0.3000
  Functional external parameters        .... 17
    Parameter  0 _cx00      =  8.500000e-01 : u^00 coefficient for exchange
    Parameter  1 _cx01      =  1.007000e+00 : u^01 coefficient for exchange
    Parameter  2 _cx10      =  2.590000e-01 : u^10 coefficient for exchange
    Parameter  3 _css00     =  4.430000e-01 : u^00 coefficient for same-spin correlation
    Parameter  4 _css04     = -1.437000e+00 : u^04 coefficient for same-spin correlation
    Parameter  5 _css10     = -4.535000e+00 : u^10 coefficient for same-spin correlation
    Parameter  6 _css20     = -3.390000e+00 : u^20 coefficient for same-spin correlation
    Parameter  7 _css43     =  4.278000e+00 : u^43 coefficient for same-spin correlation
    Parameter  8 _cos00     =  1.000000e+00 : u^00 coefficient for opposite-spin correlation
    Parameter  9 _cos10     =  1.358000e+00 : u^10 coefficient for opposite-spin correlation
    Parameter 10 _cos20     =  2.924000e+00 : u^20 coefficient for opposite-spin correlation
    Parameter 11 _cos21     = -8.812000e+00 : u^21 coefficient for opposite-spin correlation
    Parameter 12 _cos60     = -1.390000e+00 : u^60 coefficient for opposite-spin correlation
    Parameter 13 _cos61     =  9.142000e+00 : u^61 coefficient for opposite-spin correlation
    Parameter 14 _alpha     =  1.000000e+00 : fraction of HF exchange
    Parameter 15 _beta      = -8.500000e-01 : fraction of short-range exchange
    Parameter 16 _omega     =  3.000000e-01 : range-separation constant
 Long-range corrected/Screened/Range-Separated Hybrid DFT is turned on
   Amount of maximum screened exact exchange              ....  0.850000
   Range separation parameter mu (erf(mu*r12)/r12)        ....  0.300000
   NL short-range parameter             ....  6.000000
   NL long-range parameter              ....  0.010000
 RI-approximation to the Coulomb term is turned on
   Number of AuxJ basis functions       .... 215
   RIJ-COSX (HFX calculated with COS-X)).... on


General Settings:
 Integral files         IntName         .... orca
 Hartree-Fock type      HFTyp           .... RHF
 Total Charge           Charge          ....    1
 Multiplicity           Mult            ....    1
 Number of Electrons    NEL             ....   36
 Basis Dimension        Dim             ....  177
 Nuclear Repulsion      ENuc            ....    115.7372528409 Eh

Convergence Acceleration:
 AO-DIIS                CNVDIIS         .... on
   Start iteration      DIISMaxIt       ....    12
   Startup error        DIISStart       ....  0.200000
   # of expansion vecs  DIISMaxEq       ....     5
   Bias factor          DIISBfac        ....   1.050
   Max. coefficient     DIISMaxC        ....  10.000
 MO-DIIS                CNVKDIIS        .... off
 Trust-Rad. Augm. Hess. CNVTRAH         .... auto
   Auto Start mean grad. ratio tolernc. ....  1.125000
   Auto Start start iteration           ....    50
   Auto Start num. interpolation iter.  ....    10
   Max. Number of Micro iterations      ....    24
   Max. Number of Macro iterations      .... Maxiter - #DIIS iter
   Number of Davidson start vectors     ....     2
   Converg. threshold    (grad. norm)   ....   5.000e-05
   Grad. Scal. Fac. for Micro threshold ....   0.100
   Minimum threshold for Micro iter.    ....   1.000e-02
   NR start threshold (gradient norm)   ....   1.000e-04
   Initial trust radius                 ....   0.400
   Minimum AH scaling param. (alpha)    ....   1.000
   Maximum AH scaling param. (alpha)    .... 1000.000
   Quad. conv. algorithm                .... NR
   White noise on init. David. guess    .... on
   Maximum white noise                  ....   0.010
   Pseudo random numbers                .... off
   Inactive MOs                         .... canonical
   Orbital update algorithm             .... Taylor
   Preconditioner                       .... Diag
   Full preconditioner red. dimension   ....   250
 SOSCF                  CNVSOSCF        .... on
   Start iteration      SOSCFMaxIt      ....   150
   Startup grad/error   SOSCFStart      ....  0.003300
   Hessian update       SOSCFHessUp     .... L-BFGS
 Level Shifting         CNVShift        .... on
   Level shift para.    LevelShift      ....    0.2500
   Turn off err/grad.   ShiftErr        ....    0.0010
 Zerner damping         CNVZerner       .... off
 Static damping         CNVDamp         .... on
   Fraction old density DampFac         ....    0.7000
   Max. Damping (<1)    DampMax         ....    0.9800
   Min. Damping (>=0)   DampMin         ....    0.0000
   Turn off err/grad.   DampErr         ....    0.1000

SCF Procedure:
 Maximum # iterations   MaxIter         ....   125
 SCF integral mode      SCFMode         .... Direct
   Integral package                     .... SHARK and LIBINT hybrid scheme
 Reset frequency        DirectResetFreq ....    20
 Integral Threshold     Thresh          ....  1.000e-10 Eh
 Primitive CutOff       TCut            ....  1.000e-11 Eh

Convergence Tolerance:
 Convergence Check Mode ConvCheckMode   .... Total+1el-Energy
 Convergence forced     ConvForced      .... 0
 Energy Change          TolE            ....  1.000e-06 Eh
 1-El. energy change                    ....  1.000e-03 Eh
 Orbital Gradient       TolG            ....  5.000e-05
 Orbital Rotation angle TolX            ....  5.000e-05
 DIIS Error             TolErr          ....  1.000e-06

------------------------------
INITIAL GUESS: MODEL POTENTIAL
------------------------------
Loading Hartree-Fock densities                     ... done
Calculating cut-offs                               ... done
Initializing the effective Hamiltonian             ... done
Setting up the integral package (SHARK)            ... done
Starting the Coulomb interaction                   ... done (   0.2 sec)
Making the grid                                    ... done (   0.8 sec)
Mapping shells                                     ... done
Starting the XC term evaluation                    ... done (   0.3 sec)
  promolecular density results
     # of electrons  =     36.999299852
     EX              =    -42.478441878
     EC              =     -1.307761317
     EX+EC           =    -43.786203196
Transforming the Hamiltonian                       ... done (   0.1 sec)
Diagonalizing the Hamiltonian                      ... done (   0.0 sec)
Back transforming the eigenvectors                 ... done (   0.0 sec)
Now organizing SCF variables                       ... done
                      ------------------
                      INITIAL GUESS DONE (   1.5 sec)
                      ------------------
             **** ENERGY FILE WAS UPDATED (orca.en.tmp) ****
Finished Guess after   2.3 sec
Maximum memory used throughout the entire GUESS-calculation: 11.7 MB


           ************************************************************
           *        Program running with 2 parallel MPI-processes     *
           *              working on a common directory               *
           ************************************************************

-------------------------------------------------------------------------------------------
                                      ORCA LEAN-SCF
                              memory conserving SCF solver
-------------------------------------------------------------------------------------------

----------------------------------------D-I-I-S--------------------------------------------
Iteration    Energy (Eh)           Delta-E    RMSDP     MaxDP     DIISErr   Damp  Time(sec)
-------------------------------------------------------------------------------------------
               ***  Starting incremental Fock matrix formation  ***
    1    -576.8915640986311928     0.00e+00  1.31e-03  3.64e-02  1.83e-01  0.700   7.9
    2    -576.9233259198317683    -3.18e-02  1.09e-03  3.16e-02  9.14e-02  0.700   6.0
                               ***Turning on AO-DIIS***
    3    -576.9388049751910330    -1.55e-02  7.58e-04  2.59e-02  4.13e-02  0.700   5.8
    4    -576.9481104530728999    -9.31e-03  1.76e-03  5.92e-02  2.88e-02  0.000   6.0
                              *** Initializing SOSCF ***
---------------------------------------S-O-S-C-F--------------------------------------
Iteration    Energy (Eh)           Delta-E    RMSDP     MaxDP     MaxGrad    Time(sec)
--------------------------------------------------------------------------------------
    5    -576.9684404006059140    -2.03e-02  1.45e-04  5.37e-03  3.11e-03     6.5
               *** Restarting incremental Fock matrix formation ***
    6    -576.9684811500478645    -4.07e-05  5.28e-05  1.09e-03  4.31e-04     9.2
    7    -576.9684886308058367    -7.48e-06  2.92e-05  6.82e-04  2.79e-04     6.8
    8    -576.9684905778301527    -1.95e-06  8.53e-06  2.45e-04  6.90e-05     6.5
    9    -576.9684907378424441    -1.60e-07  2.09e-06  5.46e-05  2.08e-05     7.4
                 **** Energy Check signals convergence ****

               *****************************************************
               *                     SUCCESS                       *
               *           SCF CONVERGED AFTER   9 CYCLES          *
               *****************************************************


------------------
NL GRID GENERATION
------------------

General Integration Accuracy     IntAcc      ... 4.004
Radial Grid Type                 RadialGrid  ... OptM3 with GC (2021)
Angular Grid (max. ang.)         AngularGrid ... 2 (Lebedev-110)
Angular grid pruning method      GridPruning ... 4 (adaptive)
Weight generation scheme         WeightScheme... mBecke (2022)
Basis function cutoff            BFCut       ... 1.0000e-10
Integration weight cutoff        WCut        ... 1.0000e-14
Partially contracted basis set               ... off
Rotationally invariant grid construction     ... off
Angular grids for H and He will be reduced by one unit
Diffuse basis detected: some atoms will have their outermost
                        angular grid increased by 1.

Total number of grid points                  ...    13423
Total number of batches                      ...      214
Average number of points per batch           ...       62
Average number of grid points per atom       ...     1491
Final grid set up in    0.5 sec

-------------------------------------------------------------------------------
                    post-SCF DFT-NL dispersion correction                      
-------------------------------------------------------------------------------

SCF Energy:     -576.968490738 
NL    Energy:      0.148193094 
SC+NL Energy:   -576.820297643 
NL done in  :              1.4 sec
-------------------------------------------------------------------------------
Recomputing exchange energy using gridx3       ... done (   10.907 sec)
Old exchange energy                            :    -11.290494084 Eh
New exchange energy                            :    -11.290464500 Eh
Exchange energy change after final integration :      0.000029584 Eh
Total energy after final integration           :   -576.820268059 Eh
             **** ENERGY FILE WAS UPDATED (orca.en.tmp) ****

----------------
TOTAL SCF ENERGY
----------------

Total Energy       :       -576.82026805893804 Eh          -15696.07747 eV

Components:
Nuclear Repulsion  :        115.73725284090436 Eh            3149.37076 eV
Electronic Energy  :       -692.70574357874682 Eh          -18849.48157 eV
One Electron Energy:      -1015.42705811110204 Eh          -27631.17499 eV
Two Electron Energy:        322.72131453235522 Eh            8781.69342 eV

Virial components:
Potential Energy   :      -1152.70975556090548 Eh          -31366.82711 eV
Kinetic Energy     :        575.88948750196744 Eh           15670.74964 eV
Virial Ratio       :          2.00161624856361

DFT components:
N(Alpha)           :       18.000005947161 electrons
N(Beta)            :       18.000005947161 electrons
N(Total)           :       36.000011894322 electrons
NL Energy, E(C,NL) :        0.148193094432 Eh       
E(XC)              :      -32.881323395798 Eh       

---------------
SCF CONVERGENCE
---------------

  Last Energy change         ...    1.6001e-07  Tolerance :   1.0000e-06
  Last MAX-Density change    ...    5.4649e-05  Tolerance :   1.0000e-05
  Last RMS-Density change    ...    2.0885e-06  Tolerance :   1.0000e-06
  Last DIIS Error            ...    3.1123e-03  Tolerance :   1.0000e-06
  Last Orbital Gradient      ...    2.0802e-05  Tolerance :   5.0000e-05
  Last Orbital Rotation      ...    1.9664e-05  Tolerance :   5.0000e-05


----------------
ORBITAL ENERGIES
----------------

  NO   OCC          E(Eh)            E(eV) 
   0   2.0000    -102.076857     -2777.6525 
   1   2.0000     -19.688441      -535.7497 
   2   2.0000     -10.560233      -287.3585 
   3   2.0000      -9.850589      -268.0482 
   4   2.0000      -7.554031      -205.5556 
   5   2.0000      -7.548444      -205.4036 
   6   2.0000      -7.546444      -205.3492 
   7   2.0000      -1.499368       -40.7999 
   8   2.0000      -1.200638       -32.6710 
   9   2.0000      -0.987969       -26.8840 
  10   2.0000      -0.979478       -26.6530 
  11   2.0000      -0.947626       -25.7862 
  12   2.0000      -0.786387       -21.3987 
  13   2.0000      -0.737571       -20.0703 
  14   2.0000      -0.736844       -20.0505 
  15   2.0000      -0.716426       -19.4949 
  16   2.0000      -0.607141       -16.5212 
  17   2.0000      -0.593585       -16.1523 
  18   0.0000      -0.165769        -4.5108 
  19   0.0000      -0.103172        -2.8075 
  20   0.0000      -0.098544        -2.6815 
  21   0.0000      -0.082137        -2.2351 
  22   0.0000      -0.059004        -1.6056 
  23   0.0000      -0.054794        -1.4910 
  24   0.0000      -0.049104        -1.3362 
  25   0.0000      -0.029670        -0.8074 
  26   0.0000      -0.016125        -0.4388 
  27   0.0000      -0.012005        -0.3267 
  28   0.0000      -0.008381        -0.2280 
*Only the first 10 virtual orbitals were printed.

                    ********************************
                    * MULLIKEN POPULATION ANALYSIS *
                    ********************************

-----------------------
MULLIKEN ATOMIC CHARGES
-----------------------
   0 C :   -0.494729
   1 Cl:   -0.190262
   2 H :    0.275857
   3 H :    0.275647
   4 H :    0.266688
   5 O :   -0.389317
   6 H :    0.362161
   7 H :    0.447019
   8 H :    0.446937
Sum of atomic charges:    1.0000000

--------------------------------
MULLIKEN REDUCED ORBITAL CHARGES
--------------------------------
  0 C s       :     3.283153  s :     3.283153
      pz      :     1.092894  p :     3.174234
      px      :     0.950857
      py      :     1.130483
      dz2     :     0.030809  d :     0.033573
      dxz     :    -0.000137
      dyz     :    -0.008483
      dx2y2   :     0.019955
      dxy     :    -0.008571
      f0      :     0.000636  f :     0.003768
      f+1     :     0.000684
      f-1     :     0.000328
      f+2     :     0.000458
      f-2     :     0.000413
      f+3     :     0.000520
      f-3     :     0.000729

  1 Cls       :     5.956206  s :     5.956206
      pz      :     3.782789  p :    11.167411
      px      :     3.537715
      py      :     3.846907
      dz2     :     0.007371  d :     0.060248
      dxz     :     0.018244
      dyz     :     0.008981
      dx2y2   :     0.010242
      dxy     :     0.015410
      f0      :     0.000705  f :     0.006396
      f+1     :     0.001072
      f-1     :     0.000362
      f+2     :     0.000953
      f-2     :     0.001413
      f+3     :     0.000964
      f-3     :     0.000928

  2 H s       :     0.674282  s :     0.674282
      pz      :     0.031711  p :     0.049861
      px      :     0.007900
      py      :     0.010250

  3 H s       :     0.674688  s :     0.674688
      pz      :     0.012187  p :     0.049664
      px      :     0.007725
      py      :     0.029752

  4 H s       :     0.678770  s :     0.678770
      pz      :     0.009737  p :     0.054542
      px      :     0.035459
      py      :     0.009345

  5 O s       :     3.662477  s :     3.662477
      pz      :     1.576954  p :     4.704694
      px      :     1.610022
      py      :     1.517718
      dz2     :     0.008876  d :     0.020587
      dxz     :     0.003054
      dyz     :     0.000296
      dx2y2   :     0.005892
      dxy     :     0.002469
      f0      :     0.000175  f :     0.001558
      f+1     :     0.000269
      f-1     :     0.000354
      f+2     :     0.000204
      f-2     :     0.000078
      f+3     :     0.000224
      f-3     :     0.000254

  6 H s       :     0.639356  s :     0.639356
      pz      :    -0.002423  p :    -0.001516
      px      :    -0.003470
      py      :     0.004376

  7 H s       :     0.515614  s :     0.515614
      pz      :     0.017698  p :     0.037368
      px      :     0.009732
      py      :     0.009937

  8 H s       :     0.515684  s :     0.515684
      pz      :     0.009123  p :     0.037379
      px      :     0.009395
      py      :     0.018862



                     *******************************
                     * LOEWDIN POPULATION ANALYSIS *
                     *******************************

----------------------
LOEWDIN ATOMIC CHARGES
----------------------
   0 C :   -0.471835
   1 Cl:    0.735667
   2 H :    0.053826
   3 H :    0.053786
   4 H :    0.055730
   5 O :    0.218369
   6 H :   -0.001022
   7 H :    0.177752
   8 H :    0.177727

-------------------------------
LOEWDIN REDUCED ORBITAL CHARGES
-------------------------------
  0 C s       :     2.815743  s :     2.815743
      pz      :     1.012253  p :     2.988945
      px      :     0.951342
      py      :     1.025350
      dz2     :     0.151910  d :     0.631725
      dxz     :     0.134916
      dyz     :     0.071815
      dx2y2   :     0.154234
      dxy     :     0.118849
      f0      :     0.003725  f :     0.035422
      f+1     :     0.004953
      f-1     :     0.004062
      f+2     :     0.005465
      f-2     :     0.007420
      f+3     :     0.003757
      f-3     :     0.006039

  1 Cls       :     5.342040  s :     5.342040
      pz      :     3.599970  p :    10.580425
      px      :     3.338460
      py      :     3.641995
      dz2     :     0.062592  d :     0.325702
      dxz     :     0.076235
      dyz     :     0.035814
      dx2y2   :     0.083023
      dxy     :     0.068037
      f0      :     0.001450  f :     0.016166
      f+1     :     0.003208
      f-1     :     0.001035
      f+2     :     0.002702
      f-2     :     0.002915
      f+3     :     0.002670
      f-3     :     0.002187

  2 H s       :     0.714707  s :     0.714707
      pz      :     0.117368  p :     0.231467
      px      :     0.053135
      py      :     0.060964

  3 H s       :     0.714738  s :     0.714738
      pz      :     0.057730  p :     0.231476
      px      :     0.053170
      py      :     0.120576

  4 H s       :     0.707674  s :     0.707674
      pz      :     0.063911  p :     0.236596
      px      :     0.109488
      py      :     0.063197

  5 O s       :     3.253609  s :     3.253609
      pz      :     1.475446  p :     4.420836
      px      :     1.518264
      py      :     1.427126
      dz2     :     0.027081  d :     0.104770
      dxz     :     0.017961
      dyz     :     0.004103
      dx2y2   :     0.039104
      dxy     :     0.016521
      f0      :     0.000304  f :     0.002416
      f+1     :     0.000440
      f-1     :     0.000526
      f+2     :     0.000249
      f-2     :     0.000067
      f+3     :     0.000410
      f-3     :     0.000419

  6 H s       :     0.531097  s :     0.531097
      pz      :     0.098839  p :     0.469925
      px      :     0.276756
      py      :     0.094330

  7 H s       :     0.551117  s :     0.551117
      pz      :     0.139950  p :     0.271132
      px      :     0.066984
      py      :     0.064198

  8 H s       :     0.551119  s :     0.551119
      pz      :     0.061274  p :     0.271154
      px      :     0.065649
      py      :     0.144231



                      *****************************
                      * MAYER POPULATION ANALYSIS *
                      *****************************

  NA   - Mulliken gross atomic population
  ZA   - Total nuclear charge
  QA   - Mulliken gross atomic charge
  VA   - Mayer's total valence
  BVA  - Mayer's bonded valence
  FA   - Mayer's free valence

  ATOM       NA         ZA         QA         VA         BVA        FA
  0 C      6.4947     6.0000    -0.4947     3.4226     3.4226     0.0000
  1 Cl    17.1903    17.0000    -0.1903     1.0289     1.0289    -0.0000
  2 H      0.7241     1.0000     0.2759     1.0220     1.0220     0.0000
  3 H      0.7244     1.0000     0.2756     1.0217     1.0217    -0.0000
  4 H      0.7333     1.0000     0.2667     1.0505     1.0505    -0.0000
  5 O      8.3893     8.0000    -0.3893     2.0770     2.0770    -0.0000
  6 H      0.6378     1.0000     0.3622     0.9308     0.9308    -0.0000
  7 H      0.5530     1.0000     0.4470     0.8052     0.8052    -0.0000
  8 H      0.5531     1.0000     0.4469     0.8053     0.8053    -0.0000

  Mayer bond orders larger than 0.100000
B(  0-C ,  1-Cl) :   0.6297 B(  0-C ,  2-H ) :   0.9304 B(  0-C ,  3-H ) :   0.9301 
B(  0-C ,  4-H ) :   0.9408 B(  1-Cl,  6-H ) :   0.4095 B(  5-O ,  6-H ) :   0.5264 
B(  5-O ,  7-H ) :   0.8140 B(  5-O ,  8-H ) :   0.8141 

-------
TIMINGS
-------

Total SCF time: 0 days 0 hours 1 min 17 sec 

Total time                  ....      77.685 sec
Sum of individual times     ....      75.383 sec  ( 97.0%)

SCF preparation             ....       1.184 sec  (  1.5%)
Fock matrix formation       ....      64.988 sec  ( 83.7%)
  Startup                   ....       1.370 sec  (  2.1% of F)
  Split-RI-J                ....       4.181 sec  (  6.4% of F)
  Chain of spheres X        ....      46.432 sec  ( 71.4% of F)
  XC integration            ....      12.180 sec  ( 18.7% of F)
    XC Preparation          ....       0.000 sec  (  0.0% of XC)
    Basis function eval.    ....       1.410 sec  ( 11.6% of XC)
    Density eval.           ....       3.509 sec  ( 28.8% of XC)
    XC-Functional eval.     ....       1.607 sec  ( 13.2% of XC)
    XC-Potential eval.      ....       4.620 sec  ( 37.9% of XC)
Diagonalization             ....       0.000 sec  (  0.0%)
Density matrix formation    ....       1.285 sec  (  1.7%)
Total Energy calculation    ....       0.830 sec  (  1.1%)
Population analysis         ....       0.401 sec  (  0.5%)
Orbital Transformation      ....       0.817 sec  (  1.1%)
Orbital Orthonormalization  ....       0.000 sec  (  0.0%)
DIIS solution               ....       3.059 sec  (  3.9%)
SOSCF solution              ....       2.316 sec  (  3.0%)
Grid generation             ....       0.502 sec  (  0.6%)
Finished LeanSCF after  77.9 sec

Maximum memory used throughout the entire LEANSCF-calculation: 16.0 MB

-------------------------   --------------------
FINAL SINGLE POINT ENERGY      -576.820268058938
-------------------------   --------------------



           ************************************************************
           *        Program running with 2 parallel MPI-processes     *
           *              working on a common directory               *
           ************************************************************

------------------------------------------------------------------------------
                              ORCA PROPERTY CALCULATIONS
------------------------------------------------------------------------------

GBWName                                 ... orca.gbw
Number of atoms                         ...      9
Number of basis functions               ...    177
Max core memory                         ...   1024 MB

Electric properties:
Dipole moment                           ... YES
Quadrupole moment                       ...  NO
Static polarizability (Dipole/Dipole)   ...  NO
Static polarizability (Dipole/Quad.)    ...  NO
Static polarizability (Quad./Quad.)     ...  NO
Static polarizability (Velocity)        ...  NO

Atomic electric properties:
Dipole moment                           ...  NO
Quadrupole moment                       ...  NO
Static polarizability                   ...  NO

Choice of electric origin               ... Center of mass
Position of electric origin             ...     4.772723    -0.433609     0.714188

General magnetic properties:
Magnetizability                         ...  NO

EPR properties:
g-Tensor (aka g-matrix)                 ...  NO
Zero-Field splitting spin-orbit         ...  NO
Zero-field splitting spin-spin          ...  NO
Hyperfine couplings                     ...  NO (   0 nuclei)
Quadrupole couplings                    ...  NO (   0 nuclei)
Contact density                         ...  NO (   0 nuclei)

NMR properties:
Chemical shifts                         ...  NO (   0 nuclei)
Spin-rotation constants                 ...  NO (   0 nuclei)
Spin-spin couplings                     ...  NO (   0 nuclei,    0 pairs)

Choice of magnetic origin               ... GIAO
Position of magnetic origin             ...     0.000000     0.000000     0.000000

Properties with geometric perturbations:
SCF Hessian                             ...  NO
IR spectrum                             ...  NO
VCD spectrum                            ...  NO
X-ray spectroscopy properties:
SCF XES/XAS/RIXS spectra                ...  NO


-------------
DIPOLE MOMENT
-------------

Method             : SCF
Type of density    : Electron Density
Multiplicity       :   1
Irrep              :   0
Energy             :  -576.8202680589380407 Eh
Relativity type    : 
Basis              : AO
                                X                 Y                 Z
Electronic contribution:      1.110113038      -2.284972134       2.705029170
Nuclear contribution   :      0.724204813       3.469625466      -4.047096273
                        -----------------------------------------
Total Dipole Moment    :      1.834317851       1.184653331      -1.342067103
                        -----------------------------------------
Magnitude (a.u.)       :      2.563058642
Magnitude (Debye)      :      6.514777330



--------------------
Rotational spectrum 
--------------------
 
Rotational constants in cm-1:             0.627428             0.114913             0.100495 
Rotational constants in MHz :         18809.814310          3445.014065          3012.750305 

Dipole components along the rotational axes: 
x,y,z [a.u.] :     2.127595    -1.429199    -0.000436 
x,y,z [Debye]:     5.407917    -3.632734    -0.001109 

 

Dipole moment calculation done in   0.2 sec 

Maximum memory used throughout the entire PROP-calculation: 8.8 MB

         *************************************************************
                               MULTIPLE XYZ STEP   2
         *************************************************************
---------------------------------
CARTESIAN COORDINATES (ANGSTROEM)
---------------------------------
  C      0.811037    0.123625   -0.078502
  Cl     2.148665   -0.641859    0.855152
  H      0.905285   -0.179490   -1.114387
  H      0.881540    1.197322    0.048164
  H     -0.103340   -0.260992    0.358478
  O      4.710131    0.197768   -0.069934
  H      3.712966   -0.057224    0.205108
  H      4.955402   -0.085017   -0.968656
  H      4.932314    1.133877    0.078927

----------------------------
CARTESIAN COORDINATES (A.U.)
----------------------------
  NO LB      ZA    FRAG     MASS         X           Y           Z
   0 C     6.0000    0    12.011    1.532638    0.233617   -0.148347
   1 Cl   17.0000    0    35.453    4.060388   -1.212938    1.616003
   2 H     1.0000    0     1.008    1.710741   -0.339187   -2.105886
   3 H     1.0000    0     1.008    1.665869    2.262611    0.091017
   4 H     1.0000    0     1.008   -0.195284   -0.493203    0.677425
   5 O     8.0000    0    15.999    8.900858    0.373727   -0.132156
   6 H     1.0000    0     1.008    7.016489   -0.108138    0.387598
   7 H     1.0000    0     1.008    9.364353   -0.160659   -1.830495
   8 H     1.0000    0     1.008    9.320723    2.142717    0.149150

--------------------------------
INTERNAL COORDINATES (ANGSTROEM)
--------------------------------
 C      0   0   0     0.000000000000     0.00000000     0.00000000
 Cl     1   0   0     1.801922365796     0.00000000     0.00000000
 H      1   2   0     1.083429334084   108.17844189     0.00000000
 H      1   2   3     1.083439059834   108.18658700   237.81793171
 H      1   2   3     1.083958973033   105.46095806   118.91247617
 O      2   1   3     2.849888712859   111.95365789    61.33082353
 H      6   2   1     1.065367100606     5.39259470   359.80893844
 H      6   2   1     0.973563789872   116.13638440   293.54280117
 H      6   2   1     0.973563014237   116.02542191    67.13286906

---------------------------
INTERNAL COORDINATES (A.U.)
---------------------------
 C      0   0   0     0.000000000000     0.00000000     0.00000000
 Cl     1   0   0     3.405139785942     0.00000000     0.00000000
 H      1   2   0     2.047384726876   108.17844189     0.00000000
 H      1   2   3     2.047403105879   108.18658700   237.81793171
 H      1   2   3     2.048385599438   105.46095806   118.91247617
 O      2   1   3     5.385509179457   111.95365789    61.33082353
 H      6   2   1     2.013252052235     5.39259470   359.80893844
 H      6   2   1     1.839768936761   116.13638440   293.54280117
 H      6   2   1     1.839767471024   116.02542191    67.13286906



           ************************************************************
           *        Program running with 2 parallel MPI-processes     *
           *              working on a common directory               *
           ************************************************************
------------------------------------------------------------------------------
                   ___                                                        
                  /   \      - P O W E R E D   B Y -                         
                 /     \                                                     
                 |  |  |   _    _      __       _____    __    __             
                 |  |  |  | |  | |    /  \     |  _  \  |  |  /  |          
                  \  \/   | |  | |   /    \    | | | |  |  | /  /          
                 / \  \   | |__| |  /  /\  \   | |_| |  |  |/  /          
                |  |  |   |  __  | /  /__\  \  |    /   |      \           
                |  |  |   | |  | | |   __   |  |    \   |  |\   \          
                \     /   | |  | | |  |  |  |  | |\  \  |  | \   \       
                 \___/    |_|  |_| |__|  |__|  |_| \__\ |__|  \__/        
                                                                              
                      - O R C A' S   B I G   F R I E N D -                    
                                      &                                       
                       - I N T E G R A L  F E E D E R -                       
                                                                              
 v1 FN, 2020, v2 2021, v3 2022-2024                                           
------------------------------------------------------------------------------


----------------------
SHARK INTEGRAL PACKAGE
----------------------

Number of atoms                             ...      9
Number of basis functions                   ...    177
Number of shells                            ...     73
Maximum angular momentum                    ...      3
Integral batch strategy                     ... SHARK/LIBINT Hybrid
RI-J (if used) integral strategy            ... SPLIT-RIJ (Revised 2003 algorithm where possible)
Printlevel                                  ...      1
Contraction scheme used                     ... SEGMENTED contraction
Prescreening option                         ... SCHWARTZ
   Thresh                                   ... 1.000e-10
   Tcut                                     ... 1.000e-11
   Tpresel                                  ... 1.000e-11 
Coulomb Range Separation                    ... NOT USED
Exchange Range Separation                   ... Long Range
   Mu parameter                             ... 3.000e-01
   Scaling (regular/separated)              ... 1.500e-01 8.500e-01
Multipole approximations                    ... NOT USED
Finite Nucleus Model                        ... NOT USED
CABS basis                                  ... NOT available
Auxiliary Coulomb fitting basis             ... AVAILABLE
   # of basis functions in Aux-J            ...    215
   # of shells in Aux-J                     ...     77
   Maximum angular momentum in Aux-J        ...      4
Auxiliary J/K fitting basis                 ... NOT available
Auxiliary Correlation fitting basis         ... NOT available
Auxiliary 'external' fitting basis          ... NOT available

Checking pre-screening integrals            ... done (  0.0 sec) Dimension = 73
Check shell pair data                       ... done (  0.0 sec)
Shell pair information
Shell pair cut-off parameter TPreSel        ...   1.0e-11
Total number of shell pairs                 ...      2701
Shell pairs after pre-screening             ...      2548
Total number of primitive shell pairs       ...      7001
Primitive shell pairs kept                  ...      5447
          la=0 lb=0:    611 shell pairs
          la=1 lb=0:    848 shell pairs
          la=1 lb=1:    315 shell pairs
          la=2 lb=0:    308 shell pairs
          la=2 lb=1:    218 shell pairs
          la=2 lb=2:     44 shell pairs
          la=3 lb=0:     99 shell pairs
          la=3 lb=1:     73 shell pairs
          la=3 lb=2:     26 shell pairs
          la=3 lb=3:      6 shell pairs

Calculating one electron integrals          ... done (  0.2 sec)
Calculating RI/J V-Matrix + Cholesky decomp.... done (  0.1 sec)
Calculating Nuclear repulsion               ... done (  0.0 sec) ENN=    113.540620445214 Eh

Diagonalization of the overlap matrix:
Smallest eigenvalue                        ... 3.473e-05
Time for diagonalization                   ...    0.028 sec
Threshold for overlap eigenvalues          ... 1.000e-07
Number of eigenvalues below threshold      ... 0
Time for construction of square roots      ...    0.061 sec
Total time needed                          ...    0.352 sec

-------------------
DFT GRID GENERATION
-------------------

General Integration Accuracy     IntAcc      ... 4.388
Radial Grid Type                 RadialGrid  ... OptM3 with GC (2021)
Angular Grid (max. ang.)         AngularGrid ... 4 (Lebedev-302)
Angular grid pruning method      GridPruning ... 4 (adaptive)
Weight generation scheme         WeightScheme... mBecke (2022)
Basis function cutoff            BFCut       ... 1.0000e-10
Integration weight cutoff        WCut        ... 1.0000e-14
Partially contracted basis set               ... off
Rotationally invariant grid construction     ... off
Angular grids for H and He will be reduced by one unit
Diffuse basis detected: some atoms will have their outermost
                        angular grid increased by 1.

Total number of grid points                  ...    41385
Total number of batches                      ...      650
Average number of points per batch           ...       63
Average number of grid points per atom       ...     4598

--------------------
COSX GRID GENERATION
--------------------

GRIDX 1
-------
General Integration Accuracy     IntAcc      ... 3.816
Radial Grid Type                 RadialGrid  ... OptM3 with GC (2021)
Angular Grid (max. ang.)         AngularGrid ... 1 (Lebedev-50)
Angular grid pruning method      GridPruning ... 4 (adaptive)
Weight generation scheme         WeightScheme... mBecke (2022)
Basis function cutoff            BFCut       ... 1.0000e-10
Integration weight cutoff        WCut        ... 1.0000e-14
Partially contracted basis set               ... on
Rotationally invariant grid construction     ... off
Angular grids for H and He will be reduced by one unit
Diffuse basis detected: some atoms will have their outermost
                        angular grid increased by 1.

Total number of grid points                  ...     6409
Total number of batches                      ...       54
Average number of points per batch           ...      118
Average number of grid points per atom       ...      712
UseSFitting                                  ... on

GRIDX 2
-------
General Integration Accuracy     IntAcc      ... 4.020
Radial Grid Type                 RadialGrid  ... OptM3 with GC (2021)
Angular Grid (max. ang.)         AngularGrid ... 2 (Lebedev-110)
Angular grid pruning method      GridPruning ... 4 (adaptive)
Weight generation scheme         WeightScheme... mBecke (2022)
Basis function cutoff            BFCut       ... 1.0000e-10
Integration weight cutoff        WCut        ... 1.0000e-14
Partially contracted basis set               ... on
Rotationally invariant grid construction     ... off
Angular grids for H and He will be reduced by one unit
Diffuse basis detected: some atoms will have their outermost
                        angular grid increased by 1.

Total number of grid points                  ...    11986
Total number of batches                      ...       98
Average number of points per batch           ...      122
Average number of grid points per atom       ...     1332
UseSFitting                                  ... on

GRIDX 3
-------
General Integration Accuracy     IntAcc      ... 4.338
Radial Grid Type                 RadialGrid  ... OptM3 with GC (2021)
Angular Grid (max. ang.)         AngularGrid ... 3 (Lebedev-194)
Angular grid pruning method      GridPruning ... 4 (adaptive)
Weight generation scheme         WeightScheme... mBecke (2022)
Basis function cutoff            BFCut       ... 1.0000e-10
Integration weight cutoff        WCut        ... 1.0000e-14
Partially contracted basis set               ... on
Rotationally invariant grid construction     ... off
Angular grids for H and He will be reduced by one unit
Diffuse basis detected: some atoms will have their outermost
                        angular grid increased by 1.

Total number of grid points                  ...    28034
Total number of batches                      ...      225
Average number of points per batch           ...      124
Average number of grid points per atom       ...     3115
UseSFitting                                  ... on
Initializing property integral containers    ... done (  0.2 sec)

SHARK setup successfully completed in   5.5 seconds

Maximum memory used throughout the entire STARTUP-calculation: 18.2 MB


           ************************************************************
           *        Program running with 2 parallel MPI-processes     *
           *              working on a common directory               *
           ************************************************************
Occupation numbers will be reassigned to an Aufbau configuration
             **** ENERGY FILE WAS UPDATED (orca.en.tmp) ****
Finished Guess after   1.0 sec
Maximum memory used throughout the entire GUESS-calculation: 11.9 MB


           ************************************************************
           *        Program running with 2 parallel MPI-processes     *
           *              working on a common directory               *
           ************************************************************
----------------------------------------D-I-I-S--------------------------------------------
Iteration    Energy (Eh)           Delta-E    RMSDP     MaxDP     DIISErr   Damp  Time(sec)
-------------------------------------------------------------------------------------------
               ***  Starting incremental Fock matrix formation  ***
    1    -576.9703079477873189     0.00e+00  1.88e-04  4.53e-03  2.42e-02  0.700   8.1
    2    -576.9710051558523674    -6.97e-04  1.57e-04  3.80e-03  1.70e-02  0.700   5.1
                               ***Turning on AO-DIIS***
    3    -576.9715564115304005    -5.51e-04  1.35e-04  3.27e-03  1.19e-02  0.700   5.5
    4    -576.9719763357500142    -4.20e-04  3.59e-04  8.15e-03  8.33e-03  0.000   5.7
                              *** Initializing SOSCF ***
---------------------------------------S-O-S-C-F--------------------------------------
Iteration    Energy (Eh)           Delta-E    RMSDP     MaxDP     MaxGrad    Time(sec)
--------------------------------------------------------------------------------------
    5    -576.9731378868798402    -1.16e-03  5.17e-05  1.27e-03  8.88e-04     6.8
               *** Restarting incremental Fock matrix formation ***
    6    -576.9731481945478890    -1.03e-05  2.97e-05  5.82e-04  2.70e-04     8.3
    7    -576.9731500320856412    -1.84e-06  1.78e-05  3.69e-04  1.79e-04     6.9
    8    -576.9731503450683476    -3.13e-07  3.76e-06  9.39e-05  6.57e-05     6.8
                 **** Energy Check signals convergence ****

               *****************************************************
               *                     SUCCESS                       *
               *           SCF CONVERGED AFTER   8 CYCLES          *
               *****************************************************


------------------
NL GRID GENERATION
------------------

General Integration Accuracy     IntAcc      ... 4.004
Radial Grid Type                 RadialGrid  ... OptM3 with GC (2021)
Angular Grid (max. ang.)         AngularGrid ... 2 (Lebedev-110)
Angular grid pruning method      GridPruning ... 4 (adaptive)
Weight generation scheme         WeightScheme... mBecke (2022)
Basis function cutoff            BFCut       ... 1.0000e-10
Integration weight cutoff        WCut        ... 1.0000e-14
Partially contracted basis set               ... off
Rotationally invariant grid construction     ... off
Angular grids for H and He will be reduced by one unit
Diffuse basis detected: some atoms will have their outermost
                        angular grid increased by 1.

Total number of grid points                  ...    13433
Total number of batches                      ...      215
Average number of points per batch           ...       62
Average number of grid points per atom       ...     1493
Final grid set up in    0.5 sec

-------------------------------------------------------------------------------
                    post-SCF DFT-NL dispersion correction                      
-------------------------------------------------------------------------------

SCF Energy:     -576.973150345 
NL    Energy:      0.148332119 
SC+NL Energy:   -576.824818226 
NL done in  :              1.4 sec
-------------------------------------------------------------------------------
Recomputing exchange energy using gridx3       ... done (   11.092 sec)
Old exchange energy                            :    -11.282718887 Eh
New exchange energy                            :    -11.282693097 Eh
Exchange energy change after final integration :      0.000025790 Eh
Total energy after final integration           :   -576.824792437 Eh
             **** ENERGY FILE WAS UPDATED (orca.en.tmp) ****

----------------
TOTAL SCF ENERGY
----------------

Total Energy       :       -576.82479243679813 Eh          -15696.20058 eV

Components:
Nuclear Repulsion  :        113.54062044521429 Eh            3089.59735 eV
Electronic Energy  :       -690.51377079028259 Eh          -18789.83496 eV
One Electron Energy:      -1011.16338643618803 Eh          -27515.15459 eV
Two Electron Energy:        320.64961564590544 Eh            8725.31963 eV

Virial components:
Potential Energy   :      -1152.57697257584960 Eh          -31363.21390 eV
Kinetic Energy     :        575.75218013905157 Eh           15667.01332 eV
Virial Ratio       :          2.00186297565992

DFT components:
N(Alpha)           :       18.000004766850 electrons
N(Beta)            :       18.000004766850 electrons
N(Total)           :       36.000009533699 electrons
NL Energy, E(C,NL) :        0.148332118688 Eh       
E(XC)              :      -32.853270094801 Eh       

---------------
SCF CONVERGENCE
---------------

  Last Energy change         ...    3.1298e-07  Tolerance :   1.0000e-06
  Last MAX-Density change    ...    9.3892e-05  Tolerance :   1.0000e-05
  Last RMS-Density change    ...    3.7636e-06  Tolerance :   1.0000e-06
  Last DIIS Error            ...    8.8790e-04  Tolerance :   1.0000e-06
  Last Orbital Gradient      ...    6.5677e-05  Tolerance :   5.0000e-05
  Last Orbital Rotation      ...    1.1026e-04  Tolerance :   5.0000e-05


Total SCF time: 0 days 0 hours 1 min 9 sec 
Finished LeanSCF after  69.5 sec

Maximum memory used throughout the entire LEANSCF-calculation: 16.2 MB

-------------------------   --------------------
FINAL SINGLE POINT ENERGY      -576.824792436798
-------------------------   --------------------



           ************************************************************
           *        Program running with 2 parallel MPI-processes     *
           *              working on a common directory               *
           ************************************************************

------------------------------------------------------------------------------
                              ORCA PROPERTY CALCULATIONS
------------------------------------------------------------------------------

GBWName                                 ... orca.gbw
Number of atoms                         ...      9
Number of basis functions               ...    177
Max core memory                         ...   1024 MB

Electric properties:
Dipole moment                           ... YES
Quadrupole moment                       ...  NO
Static polarizability (Dipole/Dipole)   ...  NO
Static polarizability (Dipole/Quad.)    ...  NO
Static polarizability (Quad./Quad.)     ...  NO
Static polarizability (Velocity)        ...  NO

Atomic electric properties:
Dipole moment                           ...  NO
Quadrupole moment                       ...  NO
Static polarizability                   ...  NO

Choice of electric origin               ... Center of mass
Position of electric origin             ...     4.803272    -0.444339     0.730010

General magnetic properties:
Magnetizability                         ...  NO

EPR properties:
g-Tensor (aka g-matrix)                 ...  NO
Zero-Field splitting spin-orbit         ...  NO
Zero-field splitting spin-spin          ...  NO
Hyperfine couplings                     ...  NO (   0 nuclei)
Quadrupole couplings                    ...  NO (   0 nuclei)
Contact density                         ...  NO (   0 nuclei)

NMR properties:
Chemical shifts                         ...  NO (   0 nuclei)
Spin-rotation constants                 ...  NO (   0 nuclei)
Spin-spin couplings                     ...  NO (   0 nuclei,    0 pairs)

Choice of magnetic origin               ... GIAO
Position of magnetic origin             ...     0.000000     0.000000     0.000000

Properties with geometric perturbations:
SCF Hessian                             ...  NO
IR spectrum                             ...  NO
VCD spectrum                            ...  NO
X-ray spectroscopy properties:
SCF XES/XAS/RIXS spectra                ...  NO


-------------
DIPOLE MOMENT
-------------

Method             : SCF
Type of density    : Electron Density
Multiplicity       :   1
Irrep              :   0
Energy             :  -576.8247924367981341 Eh
Relativity type    : 
Basis              : AO
                                X                 Y                 Z
Electronic contribution:      1.128283728      -2.289121374       2.720366228
Nuclear contribution   :      0.591118178       3.516274479      -4.116855188
                        -----------------------------------------
Total Dipole Moment    :      1.719401906       1.227153105      -1.396488959
                        -----------------------------------------
Magnitude (a.u.)       :      2.532277448
Magnitude (Debye)      :      6.436537752



--------------------
Rotational spectrum 
--------------------
 
Rotational constants in cm-1:             0.581062             0.113396             0.098126 
Rotational constants in MHz :         17419.796479          3399.517456          2941.742463 

Dipole components along the rotational axes: 
x,y,z [a.u.] :     2.010755    -1.539247    -0.003521 
x,y,z [Debye]:     5.110934    -3.912454    -0.008950 

 

Dipole moment calculation done in   0.2 sec 

Maximum memory used throughout the entire PROP-calculation: 8.9 MB

         *************************************************************
                               MULTIPLE XYZ STEP   3
         *************************************************************
---------------------------------
CARTESIAN COORDINATES (ANGSTROEM)
---------------------------------
  C      0.761175    0.141516   -0.101023
  Cl     2.190503   -0.657060    0.870536
  H      0.878309   -0.180815   -1.127106
  H      0.858513    1.209242    0.043790
  H     -0.122715   -0.268322    0.370776
  O      4.731346    0.197181   -0.067909
  H      3.732429   -0.064025    0.212776
  H      4.974394   -0.083658   -0.967525
  H      4.950047    1.133951    0.080034

----------------------------
CARTESIAN COORDINATES (A.U.)
----------------------------
  NO LB      ZA    FRAG     MASS         X           Y           Z
   0 C     6.0000    0    12.011    1.438412    0.267426   -0.190906
   1 Cl   17.0000    0    35.453    4.139451   -1.241663    1.645075
   2 H     1.0000    0     1.008    1.659763   -0.341691   -2.129922
   3 H     1.0000    0     1.008    1.622354    2.285136    0.082751
   4 H     1.0000    0     1.008   -0.231898   -0.507055    0.700665
   5 O     8.0000    0    15.999    8.940948    0.372618   -0.128329
   6 H     1.0000    0     1.008    7.053269   -0.120990    0.402088
   7 H     1.0000    0     1.008    9.400242   -0.158091   -1.828357
   8 H     1.0000    0     1.008    9.354233    2.142857    0.151242

--------------------------------
INTERNAL COORDINATES (ANGSTROEM)
--------------------------------
 C      0   0   0     0.000000000000     0.00000000     0.00000000
 Cl     1   0   0     1.903845857689     0.00000000     0.00000000
 H      1   2   0     1.081879831777   106.12540700     0.00000000
 H      1   2   3     1.081889228290   106.14746179   238.03666889
 H      1   2   3     1.082507743503   103.40244793   119.02046959
 O      2   1   3     2.840121450705   112.13962946    61.44768486
 H      6   2   1     1.069975614932     5.54677884   359.72378819
 H      6   2   1     0.973268627708   116.23400519   293.38452550
 H      6   2   1     0.973270410292   116.12292926    67.11724452

---------------------------
INTERNAL COORDINATES (A.U.)
---------------------------
 C      0   0   0     0.000000000000     0.00000000     0.00000000
[...]
Weight generation scheme         WeightScheme... mBecke (2022)
Basis function cutoff            BFCut       ... 1.0000e-10
Integration weight cutoff        WCut        ... 1.0000e-14
Partially contracted basis set               ... on
Rotationally invariant grid construction     ... off
Angular grids for H and He will be reduced by one unit
Diffuse basis detected: some atoms will have their outermost
                        angular grid increased by 1.

Total number of grid points                  ...    12267
Total number of batches                      ...      101
Average number of points per batch           ...      121
Average number of grid points per atom       ...     1363
UseSFitting                                  ... on

GRIDX 3
-------
General Integration Accuracy     IntAcc      ... 4.338
Radial Grid Type                 RadialGrid  ... OptM3 with GC (2021)
Angular Grid (max. ang.)         AngularGrid ... 3 (Lebedev-194)
Angular grid pruning method      GridPruning ... 4 (adaptive)
Weight generation scheme         WeightScheme... mBecke (2022)
Basis function cutoff            BFCut       ... 1.0000e-10
Integration weight cutoff        WCut        ... 1.0000e-14
Partially contracted basis set               ... on
Rotationally invariant grid construction     ... off
Angular grids for H and He will be reduced by one unit
Diffuse basis detected: some atoms will have their outermost
                        angular grid increased by 1.

Total number of grid points                  ...    28830
Total number of batches                      ...      230
Average number of points per batch           ...      125
Average number of grid points per atom       ...     3203
UseSFitting                                  ... on
Initializing property integral containers    ... done (  0.1 sec)

SHARK setup successfully completed in   3.2 seconds

Maximum memory used throughout the entire STARTUP-calculation: 17.0 MB


           ************************************************************
           *        Program running with 2 parallel MPI-processes     *
           *              working on a common directory               *
           ************************************************************
Occupation numbers will be reassigned to an Aufbau configuration
             **** ENERGY FILE WAS UPDATED (orca.en.tmp) ****
Finished Guess after   0.8 sec
Maximum memory used throughout the entire GUESS-calculation: 10.6 MB


           ************************************************************
           *        Program running with 2 parallel MPI-processes     *
           *              working on a common directory               *
           ************************************************************
----------------------------------------D-I-I-S--------------------------------------------
Iteration    Energy (Eh)           Delta-E    RMSDP     MaxDP     DIISErr   Damp  Time(sec)
-------------------------------------------------------------------------------------------
               ***  Starting incremental Fock matrix formation  ***
    1    -576.8519989467881715     0.00e+00  3.07e-05  8.07e-04  9.29e-03  0.700   4.0
    2    -576.8520570856131826    -5.81e-05  2.97e-05  7.80e-04  6.51e-03  0.700   3.0
                               ***Turning on AO-DIIS***
    3    -576.8521082096052623    -5.11e-05  2.88e-05  8.87e-04  5.47e-03  0.700   2.8
    4    -576.8521514343581202    -4.32e-05  8.14e-05  2.77e-03  4.58e-03  0.000   3.4
                              *** Initializing SOSCF ***
---------------------------------------S-O-S-C-F--------------------------------------
Iteration    Energy (Eh)           Delta-E    RMSDP     MaxDP     MaxGrad    Time(sec)
--------------------------------------------------------------------------------------
    5    -576.8522945998158775    -1.43e-04  1.65e-05  7.25e-04  1.80e-03     4.0
               *** Restarting incremental Fock matrix formation ***
    6    -576.8523017102047561    -7.11e-06  1.02e-05  4.36e-04  5.74e-04     4.8
    7    -576.8523043816118161    -2.67e-06  1.11e-05  5.48e-04  3.09e-04     3.1
    8    -576.8523055098214627    -1.13e-06  7.95e-07  2.15e-05  9.13e-06     3.5
                  *** Gradient check signals convergence ***

               *****************************************************
               *                     SUCCESS                       *
               *           SCF CONVERGED AFTER   8 CYCLES          *
               *****************************************************


------------------
NL GRID GENERATION
------------------

General Integration Accuracy     IntAcc      ... 4.004
Radial Grid Type                 RadialGrid  ... OptM3 with GC (2021)
Angular Grid (max. ang.)         AngularGrid ... 2 (Lebedev-110)
Angular grid pruning method      GridPruning ... 4 (adaptive)
Weight generation scheme         WeightScheme... mBecke (2022)
Basis function cutoff            BFCut       ... 1.0000e-10
Integration weight cutoff        WCut        ... 1.0000e-14
Partially contracted basis set               ... off
Rotationally invariant grid construction     ... off
Angular grids for H and He will be reduced by one unit
Diffuse basis detected: some atoms will have their outermost
                        angular grid increased by 1.

Total number of grid points                  ...    13777
Total number of batches                      ...      220
Average number of points per batch           ...       62
Average number of grid points per atom       ...     1531
Final grid set up in    0.2 sec

-------------------------------------------------------------------------------
                    post-SCF DFT-NL dispersion correction                      
-------------------------------------------------------------------------------

SCF Energy:     -576.852305510 
NL    Energy:      0.152088008 
SC+NL Energy:   -576.700217502 
NL done in  :              2.0 sec
-------------------------------------------------------------------------------
Recomputing exchange energy using gridx3       ... done (    5.365 sec)
Old exchange energy                            :    -11.270803784 Eh
New exchange energy                            :    -11.270799929 Eh
Exchange energy change after final integration :      0.000003855 Eh
Total energy after final integration           :   -576.700213647 Eh
             **** ENERGY FILE WAS UPDATED (orca.en.tmp) ****

----------------
TOTAL SCF ENERGY
----------------

Total Energy       :       -576.70021364681645 Eh          -15692.81062 eV

Components:
Nuclear Repulsion  :         73.40426457432933 Eh            1997.43159 eV
Electronic Energy  :       -650.25657008415078 Eh          -17694.38084 eV
One Electron Energy:       -934.46856596683153 Eh          -25428.18242 eV
Two Electron Energy:        284.21199588268070 Eh            7733.80159 eV

Virial components:
Potential Energy   :      -1152.33155741315340 Eh          -31356.53581 eV
Kinetic Energy     :        575.63134376633695 Eh           15663.72519 eV
Virial Ratio       :          2.00185686532197

DFT components:
N(Alpha)           :       18.000008316265 electrons
N(Beta)            :       18.000008316265 electrons
N(Total)           :       36.000016632530 electrons
NL Energy, E(C,NL) :        0.152088008049 Eh       
E(XC)              :      -32.755250159720 Eh       

---------------
SCF CONVERGENCE
---------------

  Last Energy change         ...    1.1282e-06  Tolerance :   1.0000e-06
  Last MAX-Density change    ...    2.1533e-05  Tolerance :   1.0000e-05
  Last RMS-Density change    ...    7.9451e-07  Tolerance :   1.0000e-06
  Last DIIS Error            ...    1.8013e-03  Tolerance :   1.0000e-06
  Last Orbital Gradient      ...    9.1269e-06  Tolerance :   5.0000e-05
  Last Orbital Rotation      ...    3.5918e-05  Tolerance :   5.0000e-05


Total SCF time: 0 days 0 hours 0 min 38 sec 
Finished LeanSCF after  38.7 sec

Maximum memory used throughout the entire LEANSCF-calculation: 19.6 MB

-------------------------   --------------------
FINAL SINGLE POINT ENERGY      -576.700213646816
-------------------------   --------------------



           ************************************************************
           *        Program running with 2 parallel MPI-processes     *
           *              working on a common directory               *
           ************************************************************

------------------------------------------------------------------------------
                              ORCA PROPERTY CALCULATIONS
------------------------------------------------------------------------------

GBWName                                 ... orca.gbw
Number of atoms                         ...      9
Number of basis functions               ...    177
Max core memory                         ...   1024 MB

Electric properties:
Dipole moment                           ... YES
Quadrupole moment                       ...  NO
Static polarizability (Dipole/Dipole)   ...  NO
Static polarizability (Dipole/Quad.)    ...  NO
Static polarizability (Quad./Quad.)     ...  NO
Static polarizability (Velocity)        ...  NO

Atomic electric properties:
Dipole moment                           ...  NO
Quadrupole moment                       ...  NO
Static polarizability                   ...  NO

Choice of electric origin               ... Center of mass
Position of electric origin             ...     6.946801    -0.593171     0.461722

General magnetic properties:
Magnetizability                         ...  NO

EPR properties:
g-Tensor (aka g-matrix)                 ...  NO
Zero-Field splitting spin-orbit         ...  NO
Zero-field splitting spin-spin          ...  NO
Hyperfine couplings                     ...  NO (   0 nuclei)
Quadrupole couplings                    ...  NO (   0 nuclei)
Contact density                         ...  NO (   0 nuclei)

NMR properties:
Chemical shifts                         ...  NO (   0 nuclei)
Spin-rotation constants                 ...  NO (   0 nuclei)
Spin-spin couplings                     ...  NO (   0 nuclei,    0 pairs)

Choice of magnetic origin               ... GIAO
Position of magnetic origin             ...     0.000000     0.000000     0.000000

Properties with geometric perturbations:
SCF Hessian                             ...  NO
IR spectrum                             ...  NO
VCD spectrum                            ...  NO
X-ray spectroscopy properties:
SCF XES/XAS/RIXS spectra                ...  NO


-------------
DIPOLE MOMENT
-------------

Method             : SCF
Type of density    : Electron Density
Multiplicity       :   1
Irrep              :   0
Energy             :  -576.7002136468164508 Eh
Relativity type    : 
Basis              : AO
                                X                 Y                 Z
Electronic contribution:     -1.077857101      -2.511551401       1.343886499
Nuclear contribution   :     -8.681310494       4.171709806      -2.764413865
                        -----------------------------------------
Total Dipole Moment    :     -9.759167595       1.660158405      -1.420527367
                        -----------------------------------------
Magnitude (a.u.)       :     10.000768774
Magnitude (Debye)      :     25.419934069



--------------------
Rotational spectrum 
--------------------
 
Rotational constants in cm-1:             0.347951             0.021159             0.020088 
Rotational constants in MHz :         10431.294757           634.330904           602.209086 

Dipole components along the rotational axes: 
x,y,z [a.u.] :    -9.916013     1.299226    -0.008906 
x,y,z [Debye]:   -25.204501     3.302370    -0.022636 

 

Dipole moment calculation done in   0.3 sec 

Maximum memory used throughout the entire PROP-calculation: 13.6 MB
                              **** MULTIPLE XYZ DONE ***

                         SUMMARY OF THE CALCULATED SURFACE

-------------------------
MULTIPLE XYZ SCAN RESULTS
-------------------------

The Calculated Surface using the 'Actual Energy'
   1.00000000 -576.82026806
   2.00000000 -576.82479244
   3.00000000 -576.82269147
   4.00000000 -576.81677162
   5.00000000 -576.80881480
   6.00000000 -576.79991588
   7.00000000 -576.79075251
   8.00000000 -576.78173344
   9.00000000 -576.77309425
  10.00000000 -576.76498678
  11.00000000 -576.75751340
  12.00000000 -576.75342512
  13.00000000 -576.74766832
  14.00000000 -576.74248268
  15.00000000 -576.73784517
  16.00000000 -576.73370068
  17.00000000 -576.73000289
  18.00000000 -576.72671811
  19.00000000 -576.72380559
  20.00000000 -576.72122837
  21.00000000 -576.71895317
  22.00000000 -576.71694820
  23.00000000 -576.71518015
  24.00000000 -576.71362270
  25.00000000 -576.71224939
  26.00000000 -576.71103850
  27.00000000 -576.70996675
  28.00000000 -576.70901565
  29.00000000 -576.70817333
  30.00000000 -576.70742002
  31.00000000 -576.70674390
  32.00000000 -576.70613485
  33.00000000 -576.70558363
  34.00000000 -576.70508257
  35.00000000 -576.70462719
  36.00000000 -576.70421073
  37.00000000 -576.70382792
  38.00000000 -576.70347500
  39.00000000 -576.70314874
  40.00000000 -576.70284544
  41.00000000 -576.70256297
  42.00000000 -576.70229888
  43.00000000 -576.70205414
  44.00000000 -576.70182191
  45.00000000 -576.70160325
  46.00000000 -576.70139692
  47.00000000 -576.70120144
  48.00000000 -576.70101639
  49.00000000 -576.70083998
  50.00000000 -576.70067217
  51.00000000 -576.70051218
  52.00000000 -576.70035951
  53.00000000 -576.70021365

The Calculated Surface using the SCF energy
   1.00000000 -576.82026806
   2.00000000 -576.82479244
   3.00000000 -576.82269147
   4.00000000 -576.81677162
   5.00000000 -576.80881480
   6.00000000 -576.79991588
   7.00000000 -576.79075251
   8.00000000 -576.78173344
   9.00000000 -576.77309425
  10.00000000 -576.76498678
  11.00000000 -576.75751340
  12.00000000 -576.75342512
  13.00000000 -576.74766832
  14.00000000 -576.74248268
  15.00000000 -576.73784517
  16.00000000 -576.73370068
  17.00000000 -576.73000289
  18.00000000 -576.72671811
  19.00000000 -576.72380559
  20.00000000 -576.72122837
  21.00000000 -576.71895317
  22.00000000 -576.71694820
  23.00000000 -576.71518015
  24.00000000 -576.71362270
  25.00000000 -576.71224939
  26.00000000 -576.71103850
  27.00000000 -576.70996675
  28.00000000 -576.70901565
  29.00000000 -576.70817333
  30.00000000 -576.70742002
  31.00000000 -576.70674390
  32.00000000 -576.70613485
  33.00000000 -576.70558363
  34.00000000 -576.70508257
  35.00000000 -576.70462719
  36.00000000 -576.70421073
  37.00000000 -576.70382792
  38.00000000 -576.70347500
  39.00000000 -576.70314874
  40.00000000 -576.70284544
  41.00000000 -576.70256297
  42.00000000 -576.70229888
  43.00000000 -576.70205414
  44.00000000 -576.70182191
  45.00000000 -576.70160325
  46.00000000 -576.70139692
  47.00000000 -576.70120144
  48.00000000 -576.70101639
  49.00000000 -576.70083998
  50.00000000 -576.70067217
  51.00000000 -576.70051218
  52.00000000 -576.70035951
  53.00000000 -576.70021365


--------------------------------
SUGGESTED CITATIONS FOR THIS RUN
--------------------------------

Below you find a list of papers that are relevant to this ORCA run
We neither can nor want to force you to cite these papers, but we appreciate if you do
You receive ORCA, which is the product of decades of hard work by many enthusiastic individuals, for free
The only thing we kindly ask in return is that you cite our papers,
We deeply appreciate it, if you show your appreciation for ORCA by not just citing the generic ORCA reference.

Please note that relegating all ORCA citations to the supporting information does *not* help us.
SI sections are not indexed - citations you put there will not count into any citation statistics
But we need these citations in order to attract the funding resources that allow us to do what we are doing

Therefore, if you are a happy ORCA user, please consider citing a few of the papers listed below in the main body of your paper

In addition to the list printed below, the program has created the file orca.bibtex that contains the list in bibtex format
You can import this file easily into all common literature databanks and citation aid programs


List of essential papers. We consider these as the minimum necessary citations

  1. Neese,F.
     Software update: the ORCA program system, version 5.0
     WIRES Comput. Molec. Sci., 2022 12(1)e1606
     doi.org/10.1002/wcms.1606

List of papers to cite with high priority. The work reported in these papers was absolutely
necessary for this run to complete.
Our perspective: the developers of density functionals and basis sets usually get cited in chemistry papers
Good! But without the algorithms to do something with them, the functionals or basis sets would not do anything.
Hence, in our opinion, the algorithm design and method developments papers are equally worthy of getting cited

  1. Neese,F.
     An improvement of the resolution of the identity approximation for the formation of the Coulomb matrix
     J. Comp. Chem., 2003 24(14)1740-1747
     doi.org/10.1002/jcc.10318
  2. Neese,F.; Wennmohs,F.; Hansen,A.; Becker,U.
     Efficient, approximate and parallel Hartree-Fock and hybrid DFT calculations. A 'chain-of-spheres' algorithm for the Hartree-Fock exchange
     Chem. Phys., 2009 356(1-3)98-109
     doi.org/10.1016/j.chemphys.2008.10.036
  3. Helmich-Paris,B.; de Souza,B.; Neese,F.; Izsák,R.
     An improved chain of spheres for exchange algorithm
     J. Chem. Phys., 2021 155 104109
     doi.org/doi: 10.1063/5.0058766.
  4. Neese,F.
     The SHARK Integral Generation and Digestion System
     J. Comp. Chem., 2022  1-16
     doi.org/10.1002/jcc.26942
  5. Lehtola,S.; Steigemann,C.; Oliveira,M.; Marques,M.
     Recent developments in Libxc - A comprehensive library of functionals for density functional theory
     Software X, 2018 7 
     doi.org/10.1016/j.softx.2017.11.002

List of suggested additional citations. These are papers that are important in the 'surrounding' of 
of this run, or papers that preceded the highly important papers. If you like your results we are grateful for a citation.

  1. Izsak,R.; Neese,F.
     An overlap fitted chain of spheres exchange method
     J. Chem. Phys., 2011 135 144105
     doi.org/10.1063/1.3646921
  2. Izsak,R.; Hansen,A.; Neese,F.
     The resolution of identity and chain of spheres approximations for the LPNO-CCSD singles Fock term
     Molec. Phys., 2012 110 2413-2417
     doi.org/10.1080/00268976.2012.687466
  3. Neese,F.
     The ORCA program system
     WIRES Comput. Molec. Sci., 2012 2(1)73-78
     doi.org/10.1002/wcms.81
  4. Izsak,R.; Neese,F.; Klopper,W.
     Robust fitting techniques in the chain of spheres approximation to the Fock exchange: The role of the complementary space
     J. Chem. Phys., 2013 139 
     doi.org/10.1063/1.4819264
  5. Neese,F.
     Software update: the ORCA program system, version 4.0
     WIRES Comput. Molec. Sci., 2018 8(1)1-6
     doi.org/10.1002/wcms.1327
  6. Neese,F.; Wennmohs,F.; Becker,U.; Riplinger,C.
     The ORCA quantum chemistry program package
     J. Chem. Phys., 2020 152 Art. No. L224108
     doi.org/10.1063/5.0004608

List of optional additional citations

  1. Neese,F.
     Approximate second-order SCF convergence for spin unrestricted wavefunctions
     Chem. Phys. Lett., 2000 325(1-3)93-98
     doi.org/10.1016/s0009-2614(00)00662-x

Timings for individual modules:

Sum of individual times          ...     3432.827 sec (=  57.214 min)
Startup calculation              ...      242.029 sec (=   4.034 min)   7.1 %
SCF iterations                   ...     3148.385 sec (=  52.473 min)  91.7 %
Property calculations            ...       42.413 sec (=   0.707 min)   1.2 %
                             ****ORCA TERMINATED NORMALLY****
TOTAL RUN TIME: 0 days 0 hours 57 minutes 40 seconds 150 msec
