5
Coordinates from ORCA-job orca Relaxed Surface Scan Step 33 E -499.949332931183
  C       0.651165     -0.000025     -0.000074
  Cl      4.401165      0.000391      0.000425
  H       0.637286      0.127718     -1.070231
  H       0.624286      0.862675      0.645501
  H       0.630959     -0.990679      0.424140
