5
Coordinates from ORCA-job orca Relaxed Surface Scan Step 51 E -500.080066156549
  C       1.182047     -0.000094     -0.000301
  Cl      3.103920      0.000979      0.001981
  H       0.887423      0.123161     -1.034041
  H       0.885107      0.832961      0.622957
  H       0.886363     -0.956927      0.409164
