5
Coordinates from ORCA-job orca Relaxed Surface Scan Step 37 E -499.957423071515
  C       0.740346     -0.000204     -0.000445
  Cl      4.084095      0.001067      0.001852
  H       0.710063      0.127525     -1.070454
  H       0.703613      0.862413      0.645081
  H       0.706744     -0.990720      0.423726
