5
Coordinates from ORCA-job orca Relaxed Surface Scan Step 8 E -499.944130049084
  C       0.132147      0.000158      0.000103
  Cl      6.421210     -0.000511     -0.000655
  H       0.137586      0.127956     -1.069831
  H       0.122383      0.862827      0.645733
  H       0.131534     -0.990350      0.424410
