5
Coordinates from ORCA-job orca Relaxed Surface Scan Step 41 E -499.974815072152
  C       0.836205     -0.000259     -0.000597
  Cl      3.773703      0.001264      0.002431
  H       0.780005      0.127384     -1.069822
  H       0.776650      0.861746      0.644472
  H       0.778298     -0.990055      0.423275
