5
Coordinates from ORCA-job orca Relaxed Surface Scan Step 32 E -499.948216098076
  C       0.629162      0.000022      0.000011
  Cl      4.480725      0.000199      0.000068
  H       0.618887      0.127771     -1.070148
  H       0.604222      0.862731      0.645592
  H       0.611864     -0.990643      0.424236
