5
Coordinates from ORCA-job orca Relaxed Surface Scan Step 10 E -499.944164710424
  C       0.172955      0.000174      0.000139
  Cl      6.258892     -0.000572     -0.000792
  H       0.178652      0.127973     -1.069797
  H       0.162287      0.862842      0.645765
  H       0.172075     -0.990338      0.424446
