5
Coordinates from ORCA-job orca Relaxed Surface Scan Step 47 E -500.035497981925
  C       1.024830     -0.000177     -0.000476
  Cl      3.352953      0.001103      0.002257
  H       0.856866      0.126037     -1.058316
  H       0.854442      0.852500      0.637558
  H       0.855769     -0.979382      0.418737
