5
Coordinates from ORCA-job orca Relaxed Surface Scan Step 11 E -499.944186229847
  C       0.193380      0.000181      0.000156
  Cl      6.177755     -0.000595     -0.000853
  H       0.199145      0.127980     -1.069783
  H       0.182266      0.862847      0.645778
  H       0.192316     -0.990333      0.424462
