5
Coordinates from ORCA-job orca Relaxed Surface Scan Step 62 E -497.080850763522
  C       1.724717      0.000207      0.000342
  Cl      2.529404      0.000657      0.001287
  H       0.897975      0.114482     -0.961099
  H       0.895802      0.774105      0.578941
  H       0.896962     -0.889372      0.380289
