5
Coordinates from ORCA-job orca Relaxed Surface Scan Step 34 E -499.950748631562
  C       0.673283     -0.000077     -0.000178
  Cl      4.321720      0.000598      0.000846
  H       0.655468      0.127658     -1.070320
  H       0.644388      0.862617      0.645391
  H       0.650002     -0.990716      0.424021
