5
Coordinates from ORCA-job orca Relaxed Surface Scan Step 15 E -499.944305943280
  C       0.275362      0.000199      0.000208
  Cl      5.853487     -0.000650     -0.001034
  H       0.280720      0.127999     -1.069745
  H       0.262229      0.862862      0.645819
  H       0.273063     -0.990329      0.424512
