5
Coordinates from ORCA-job orca Relaxed Surface Scan Step 19 E -499.944447100437
  C       0.357024      0.000200      0.000235
  Cl      5.528899     -0.000645     -0.001121
  H       0.362207      0.128001     -1.069736
  H       0.342770      0.862868      0.645844
  H       0.353960     -0.990344      0.424538
