5
Coordinates from ORCA-job orca Relaxed Surface Scan Step 58 E -499.725692581650
  C       1.488850      0.000072      0.000055
  Cl      2.699787      0.000765      0.001487
  H       0.919817      0.115183     -0.967042
  H       0.917626      0.778962      0.582595
  H       0.918780     -0.894901      0.382665
