5
Coordinates from ORCA-job orca Relaxed Surface Scan Step 63 E -495.256245387467
  C       1.825107      0.000280      0.000649
  Cl      2.528232      0.000653      0.001354
  H       0.864692      0.113361     -0.951403
  H       0.862867      0.765895      0.572798
  H       0.863961     -0.880109      0.376362
