5
Coordinates from ORCA-job orca Relaxed Surface Scan Step 6 E -499.944104462363
  C       0.091367      0.000141      0.000065
  Cl      6.583554     -0.000446     -0.000507
  H       0.096462      0.127937     -1.069869
  H       0.082502      0.862813      0.645700
  H       0.090975     -0.990365      0.424371
