5
Coordinates from ORCA-job orca Relaxed Surface Scan Step 52 E -500.085335070714
  C       1.223550     -0.000073     -0.000254
  Cl      3.043861      0.000946      0.001908
  H       0.893602      0.122144     -1.025460
  H       0.891301      0.826049      0.617791
  H       0.892546     -0.948987      0.405776
