5
Coordinates from ORCA-job orca Relaxed Surface Scan Step 24 E -499.944850341762
  C       0.459433      0.000197      0.000276
  Cl      5.123495     -0.000613     -0.001239
  H       0.463893      0.127999     -1.069744
  H       0.443260      0.862883      0.645886
  H       0.454778     -0.990387      0.424581
