5
Coordinates from ORCA-job orca Relaxed Surface Scan Step 16 E -499.944340493700
  C       0.295880      0.000200      0.000217
  Cl      5.772442     -0.000651     -0.001058
  H       0.301030      0.128000     -1.069741
  H       0.282283      0.862862      0.645825
  H       0.293224     -0.990330      0.424518
