5
Coordinates from ORCA-job orca Relaxed Surface Scan Step 30 E -499.946671943847
  C       0.585863      0.000103      0.000155
  Cl      4.640551     -0.000146     -0.000557
  H       0.581419      0.127867     -1.069981
  H       0.563823      0.862809      0.645741
  H       0.573203     -0.990554      0.424402
