5
Coordinates from ORCA-job orca Relaxed Surface Scan Step 40 E -499.969250932120
  C       0.810986     -0.000256     -0.000580
  Cl      3.850047      0.001251      0.002361
  H       0.763220      0.127428     -1.070151
  H       0.759369      0.862028      0.644700
  H       0.761238     -0.990372      0.423431
