5
Coordinates from ORCA-job orca Relaxed Surface Scan Step 60 E -498.998761098511
  C       1.593856      0.000118      0.000182
  Cl      2.601668      0.000698      0.001368
  H       0.917511      0.114168     -0.958271
  H       0.915325      0.771901      0.577278
  H       0.916500     -0.886806      0.379203
