5
Coordinates from ORCA-job orca Relaxed Surface Scan Step 9 E -499.944146050554
  C       0.152543      0.000166      0.000121
  Cl      6.340043     -0.000542     -0.000726
  H       0.158132      0.127964     -1.069814
  H       0.142335      0.862834      0.645750
  H       0.151807     -0.990343      0.424428
