5
Coordinates from ORCA-job orca Relaxed Surface Scan Step 13 E -499.944239716527
  C       0.234325      0.000192      0.000184
  Cl      6.015575     -0.000633     -0.000953
  H       0.239992      0.127992     -1.069760
  H       0.222226      0.862856      0.645801
  H       0.232742     -0.990327      0.424489
