5
Coordinates from ORCA-job orca Relaxed Surface Scan Step 20 E -499.944491929655
  C       0.377365      0.000201      0.000244
  Cl      5.447678     -0.000647     -0.001152
  H       0.382656      0.128002     -1.069733
  H       0.362930      0.862872      0.645853
  H       0.374231     -0.990349      0.424548
