5
Coordinates from ORCA-job orca Relaxed Surface Scan Step 43 E -499.989693398487
  C       0.891880     -0.000245     -0.000595
  Cl      3.626253      0.001237      0.002470
  H       0.810258      0.127212     -1.068368
  H       0.807525      0.860565      0.643574
  H       0.808943     -0.988690      0.422680
