5
Coordinates from ORCA-job orca Relaxed Surface Scan Step 38 E -499.960685584235
  C       0.763341     -0.000228     -0.000502
  Cl      4.005528      0.001153      0.002070
  H       0.728059      0.127493     -1.070424
  H       0.722663      0.862327      0.644978
  H       0.725270     -0.990665      0.423638
