5
Coordinates from ORCA-job orca Relaxed Surface Scan Step 25 E -499.945010504419
  C       0.480386      0.000191      0.000272
  Cl      5.042886     -0.000571     -0.001185
  H       0.483705      0.127986     -1.069766
  H       0.463261      0.862879      0.645874
  H       0.474622     -0.990405      0.424565
