5
Coordinates from ORCA-job orca Relaxed Surface Scan Step 7 E -499.944116328511
  C       0.111760      0.000150      0.000083
  Cl      6.502385     -0.000480     -0.000580
  H       0.117018      0.127946     -1.069851
  H       0.102437      0.862821      0.645717
  H       0.111260     -0.990357      0.424390
