5
Coordinates from ORCA-job orca Relaxed Surface Scan Step 22 E -499.944623001151
  C       0.418080      0.000203      0.000266
  Cl      5.285267     -0.000653     -0.001231
  H       0.423582      0.128008     -1.069726
  H       0.403192      0.862882      0.645877
  H       0.414739     -0.990360      0.424574
