5
Coordinates from ORCA-job orca Relaxed Surface Scan Step 42 E -499.981507069816
  C       0.862940     -0.000255     -0.000601
  Cl      3.698876      0.001259      0.002463
  H       0.795844      0.127317     -1.069272
  H       0.792850      0.861295      0.644125
  H       0.794350     -0.989536      0.423044
