5
Coordinates from ORCA-job orca Relaxed Surface Scan Step 35 E -499.952527378585
  C       0.695443     -0.000125     -0.000276
  Cl      4.242318      0.000779      0.001224
  H       0.673710      0.127608     -1.070392
  H       0.664356      0.862556      0.645286
  H       0.669033     -0.990738      0.423917
