5
Coordinates from ORCA-job orca Relaxed Surface Scan Step 55 E -500.044467597813
  C       1.351218     -0.000004     -0.000102
  Cl      2.866841      0.000851      0.001688
  H       0.910034      0.118601     -0.995693
  H       0.907782      0.802065      0.599862
  H       0.908985     -0.921434      0.394005
