5
Coordinates from ORCA-job orca Relaxed Surface Scan Step 61 E -498.263136664597
  C       1.653864      0.000153      0.000252
  Cl      2.560113      0.000671      0.001321
  H       0.911359      0.114314     -0.959480
  H       0.909171      0.772859      0.577991
  H       0.910352     -0.887917      0.379677
