5
Coordinates from ORCA-job orca Relaxed Surface Scan Step 36 E -499.954725409816
  C       0.717716     -0.000170     -0.000369
  Cl      4.163027      0.000945      0.001572
  H       0.691939      0.127563     -1.070451
  H       0.684183      0.862495      0.645187
  H       0.687994     -0.990753      0.423821
