5
Coordinates from ORCA-job orca Relaxed Surface Scan Step 57 E -499.891618801313
  C       1.441049      0.000048     -0.000002
  Cl      2.753548      0.000797      0.001554
  H       0.917836      0.116187     -0.975533
  H       0.915635      0.785804      0.587719
  H       0.916792     -0.902757      0.386022
