5
Coordinates from ORCA-job orca Relaxed Surface Scan Step 1 E -499.944028780089
  C      -0.011361      0.000097     -0.000042
  Cl      6.988639     -0.000284     -0.000127
  H      -0.005870      0.127880     -1.069946
  H      -0.016667      0.862758      0.645612
  H      -0.009881     -0.990371      0.424263
