5
Coordinates from ORCA-job orca Relaxed Surface Scan Step 28 E -499.945761763177
  C       0.543572      0.000150      0.000224
  Cl      4.801385     -0.000359     -0.000893
  H       0.542606      0.127927     -1.069872
  H       0.523444      0.862843      0.645813
  H       0.533853     -0.990481      0.424490
