5
Coordinates from ORCA-job orca Relaxed Surface Scan Step 26 E -499.945213468659
  C       0.501421      0.000182      0.000266
  Cl      4.962358     -0.000521     -0.001131
  H       0.503465      0.127974     -1.069792
  H       0.483228      0.862871      0.645864
  H       0.494388     -0.990426      0.424553
