5
Coordinates from ORCA-job orca Relaxed Surface Scan Step 59 E -499.450386493187
  C       1.539448      0.000096      0.000118
  Cl      2.648822      0.000731      0.001421
  H       0.919937      0.114462     -0.960869
  H       0.917746      0.773993      0.578862
  H       0.918907     -0.889202      0.380228
