5
Coordinates from ORCA-job orca Relaxed Surface Scan Step 21 E -499.944548448356
  C       0.397735      0.000200      0.000252
  Cl      5.366484     -0.000644     -0.001182
  H       0.403085      0.128004     -1.069731
  H       0.383083      0.862875      0.645862
  H       0.394473     -0.990355      0.424558
