5
Coordinates from ORCA-job orca Relaxed Surface Scan Step 56 E -499.989387383358
  C       1.395382      0.000023     -0.000054
  Cl      2.809443      0.000825      0.001620
  H       0.914436      0.117359     -0.985345
  H       0.912211      0.793719      0.593632
  H       0.913388     -0.911846      0.389906
