5
Coordinates from ORCA-job orca Relaxed Surface Scan Step 5 E -499.944094148346
  C       0.070982      0.000132      0.000045
  Cl      6.664732     -0.000412     -0.000429
  H       0.075883      0.127927     -1.069890
  H       0.062566      0.862806      0.645683
  H       0.070696     -0.990373      0.424351
