5
Coordinates from ORCA-job orca Relaxed Surface Scan Step 29 E -499.946156685476
  C       0.564459      0.000131      0.000201
  Cl      4.720709     -0.000276     -0.000786
  H       0.562332      0.127907     -1.069919
  H       0.543666      0.862835      0.645796
  H       0.553694     -0.990517      0.424468
