5
Coordinates from ORCA-job orca Relaxed Surface Scan Step 49 E -500.059964164420
  C       1.101144     -0.000136     -0.000392
  Cl      3.226142      0.001040      0.002121
  H       0.873670      0.124847     -1.048261
  H       0.871306      0.844413      0.631516
  H       0.872598     -0.970084      0.414776
