5
Coordinates from ORCA-job orca Relaxed Surface Scan Step 23 E -499.944721815465
  C       0.438753      0.000202      0.000274
  Cl      5.204377     -0.000639     -0.001245
  H       0.443767      0.128004     -1.069729
  H       0.423196      0.862884      0.645882
  H       0.434767     -0.990371      0.424578
