5
Coordinates from ORCA-job orca Relaxed Surface Scan Step 39 E -499.964590620240
  C       0.786786     -0.000246     -0.000549
  Cl      3.927410      0.001214      0.002239
  H       0.745848      0.127464     -1.070335
  H       0.741314      0.862209      0.644858
  H       0.743502     -0.990560      0.423546
