5
Coordinates from ORCA-job orca Relaxed Surface Scan Step 14 E -499.944271667626
  C       0.254850      0.000196      0.000197
  Cl      5.934538     -0.000643     -0.000997
  H       0.260360      0.127996     -1.069751
  H       0.242212      0.862859      0.645810
  H       0.252900     -0.990327      0.424501
