5
Coordinates from ORCA-job orca Relaxed Surface Scan Step 50 E -500.071045202719
  C       1.141167     -0.000116     -0.000349
  Cl      3.164603      0.001012      0.002052
  H       0.880831      0.124065     -1.041669
  H       0.878497      0.839103      0.627550
  H       0.879763     -0.963984      0.412175
