5
Coordinates from ORCA-job orca Relaxed Surface Scan Step 45 E -500.011318079539
  C       0.955208     -0.000215     -0.000547
  Cl      3.486456      0.001175      0.002385
  H       0.835623      0.126789     -1.064736
  H       0.833113      0.857652      0.641402
  H       0.834460     -0.985321      0.421256
