131
	Energy:     231.1618626
N         -4.60799        1.47965        1.88903
C         -5.72355        0.95170        1.05112
C         -3.83553        0.55814        2.76976
C         -5.29512       -0.36549        0.35216
C         -3.47292       -0.73058        1.99301
C         -4.69277       -1.38145        1.32567
C         -4.56497        0.21393        4.09500
C         -2.51404        1.26167        3.15218
C         -7.04049        0.74235        1.84351
C         -6.01139        1.99491       -0.05132
O         -4.24187       -2.47480        0.61079
C          4.74084       -0.67246       -1.97555
C          4.08831       -2.05097       -1.62387
C          4.39791       -2.39579       -0.16530
C          5.91369       -2.64087       -0.00598
C          6.81667       -1.69705       -0.87477
C          3.82200        0.47228       -1.48962
C          4.84704       -0.55270       -3.51785
C          7.37060       -2.44608       -2.11596
C          8.03305       -1.27836       -0.01735
O          3.71552       -3.51131        0.28893
N          6.05114       -0.48969       -1.27498
C         -4.56356       -3.78071        0.80961
C          2.36813       -3.59937        0.46038
O         -5.50937       -4.08898        1.52329
O          1.65060       -2.66179        0.14859
C         -3.64196       -4.83489        0.19110
C          1.79887       -4.81658        1.18146
C         -2.21369       -4.53418        0.80756
C          2.43875       -4.81209        2.59065
C         -4.11572       -6.25276        0.62991
C          2.26338       -6.09027        0.45766
C         -0.83908       -5.10080        0.26684
C          0.23054       -4.74287        1.38250
C         -0.91811       -6.64070        0.09604
C         -0.50944       -4.42845       -1.06345
O         -0.26174       -5.09534       -2.05915
O         -0.53687       -3.08225       -1.16650
H          7.99148       -3.31147       -1.79800
H          8.01321       -1.77603       -2.72598
H          6.58234       -2.85419       -2.76819
H          3.84450       -0.66878       -3.98374
H          5.50889       -1.32615       -3.94970
H          5.24229        0.44046       -3.82060
H          4.25753        1.45892       -1.75819
H          2.81570        0.40183       -1.95646
H          3.69309        0.46079       -0.38865
H          8.72619       -0.62455       -0.58861
H          8.60374       -2.17104        0.31990
H          7.69653       -0.71805        0.88163
H          6.17619       -3.69516       -0.24753
H          6.10865       -2.52808        1.08438
H          4.48532       -2.88111       -2.24187
H          3.00134       -2.00714       -1.84658
H          4.11386       -1.53062        0.47095
H         -7.36390        1.68229        2.33844
H         -6.98813       -0.05134        2.59888
H         -7.85280        0.43204        1.15355
H         -4.82008        1.13469        4.66106
H         -3.90316       -0.40309        4.74067
H         -5.47764       -0.38070        3.96655
H         -2.70909        2.19362        3.72493
H         -1.87530        0.59982        3.77689
H         -1.94103        1.53657        2.24012
H         -6.79617        1.64074       -0.74840
H         -6.34710        2.95871        0.38778
H         -5.09379        2.19318       -0.64647
H         -4.51049       -0.13478       -0.40488
H         -6.15401       -0.81956       -0.18145
H         -2.75376       -0.47307        1.18112
H         -2.96205       -1.45728        2.66341
H         -5.43553       -1.68693        2.09115
H          2.15821       -3.89113        3.14714
H          2.10166       -5.69117        3.18185
H          3.54864       -4.85555        2.53401
H          1.91203       -6.99834        0.99250
H          3.37340       -6.13926        0.41806
H          1.91238       -6.09236       -0.59439
H          0.01962       -7.10120       -0.24254
H         -1.63500       -6.91310       -0.69876
H         -1.21509       -7.13015        1.04809
H         -0.03110       -5.40995        2.23533
H          0.03587       -3.71318        1.75941
H         -2.30121       -4.80283        1.88541
H         -2.05877       -3.43286        0.80218
H         -0.35049       -2.63465       -2.00400
O          6.83900        0.40941       -1.92363
O         -5.00439        2.58316        2.57811
H         -3.54840       -7.07646        0.17190
H         -5.17914       -6.42264        0.36579
H         -4.05062       -6.36216        1.73387
C         -3.66661       -4.67896       -1.36788
C         -4.93847       -5.19462       -2.09854
H         -2.85359       -5.30766       -1.77423
H         -3.44798       -3.62586       -1.65199
C         -4.75653       -5.12216       -3.62039
H         -5.64228       -5.55390       -4.13487
H         -3.86157       -5.70215       -3.93168
H         -4.62805       -4.06899       -3.95125
C         -6.22321       -4.49659       -1.71993
H         -5.04398       -6.27346       -1.85434
O         -7.06838       -5.12049       -1.09231
O         -6.49698       -3.24720       -2.19084
C         -7.76398       -2.67504       -2.19149
C         -8.72337       -3.50153       -3.08148
C         -7.68501       -1.26722       -2.80558
H         -8.12744       -2.62254       -1.14461
C        -10.14613       -2.89410       -3.14838
H         -8.79580       -4.55656       -2.74428
H         -8.28484       -3.52083       -4.10541
C         -9.07111       -0.56712       -2.86602
H         -7.29172       -1.38412       -3.84137
H         -6.95916       -0.62992       -2.26141
C        -10.91017       -3.14145       -1.81964
H        -11.01315       -4.23370       -1.64047
H        -11.93356       -2.71207       -1.86022
H        -10.40408       -2.75444       -0.92716
C        -10.92399       -3.63833       -4.25689
H        -10.97893       -4.72826       -4.04350
H        -10.42621       -3.50167       -5.24108
H        -11.96260       -3.25269       -4.34319
C         -9.52050       -0.09803       -1.45698
H        -10.51327        0.39778       -1.49662
H         -8.80321        0.64488       -1.06035
H         -9.55562       -0.89294       -0.70254
C         -8.91603        0.70221       -3.73281
H         -9.87641        1.25655       -3.80490
H         -8.15366        1.38807       -3.30284
H         -8.59959        0.43306       -4.76369
N        -10.06607       -1.45636       -3.53069
O        -11.30184       -0.88827       -3.52009
