LAMMPS data file via write_data, version 23 Jun 2022, timestep = 1000000

5056 atoms
22 atom types
4992 bonds
23 bond types
8896 angles
43 angle types
12672 dihedrals
53 dihedral types

-1.8368657816886211 34.26286578169414 xlo xhi
-0.5226421984903813 35.02224219849028 ylo yhi
0 358.41235571790344 zlo zhi

Masses

1 1.008
2 1.008
3 1.008
4 1.008
5 1.008
6 126.9
7 12.01
8 12.01
9 12.01
10 12.01
11 12.01
12 12.01
13 12.01
14 12.01
15 12.01
16 12.01
17 12.01
18 12.01
19 12.01
20 14.01
21 207.2
22 16

Bond Coeffs # harmonic

1 330.6 1.0969
2 330.6 1.0969
3 330.6 1.0969
4 345.8 1.086
5 345.8 1.086
6 338.7 1.091
7 373.2 1.0304
8 300.9 1.5375
9 321 1.5156
10 321 1.5156
11 461.1 1.3984
12 461.1 1.3984
13 321 1.5156
14 461.1 1.3984
15 461.1 1.3984
16 461.1 1.3984
17 450.2 1.4058
18 351.4 1.4854
19 450.2 1.4058
20 450.2 1.4058
21 376.6 1.3696
22 300.9 1.5375
23 283.3 1.511

Angle Coeffs # harmonic

1 39.4 107.58
2 46.34 109.8
3 39.4 107.58
4 46.8 110.47
5 39.4 107.58
6 46.8 110.47
7 46.34 109.8
8 48.18 119.88
9 48.18 119.88
10 47.98 119.86
11 48.18 119.88
12 48.18 119.88
13 47.98 119.86
14 39.22 109.75
15 46.2 110.56
16 48.65 108.01
17 40.58 108.3
18 45.85 110.11
19 63.53 120.77
20 63.53 120.77
21 66.62 120.02
22 66.26 120.69
23 66.62 120.02
24 63.15 112.07
25 62.86 111.51
26 63.15 112.07
27 63.56 112.24
28 66.26 120.69
29 69.58 119.2
30 63.53 120.77
31 66.62 120.02
32 63.53 120.77
33 66.26 120.69
34 66.72 118.38
35 64.05 121.11
36 64.05 121.11
37 64.05 121.11
38 66.62 120.02
39 66.62 120.02
40 66.72 118.38
41 63.48 119.89
42 64.18 114.21
43 70.06 116.91

Dihedral Coeffs # opls

1 0 0 0.32 0
2 0 0 0.311111 0
3 0 0 0 0
4 0 0 0 0
5 0 0 0.311111 0
6 0 0 0.311111 0
7 0 7.25 0 0
8 0 7.25 0 0
9 0 7.25 0 0
10 0 7.25 0 0
11 0 7.25 0 0
12 0 7.25 0 0
13 0 7.25 0 0
14 0 7.25 0 0
15 0 7.25 0 0
16 0 7.25 0 0
17 0 7.25 0 0
18 0 7.25 0 0
19 0 7.25 0 0
20 0 0 0.311111 0
21 0 0 0.311111 0
22 0 0 0.311111 0
23 0 7.25 0 0
24 0 7.25 0 0
25 0 7.25 0 0
26 0 7.25 0 0
27 0 7.25 0 0
28 0 7.25 0 0
29 0 7.25 0 0
30 0 0 0.311111 0
31 0 0 0 0
32 0 0 0 0
33 0 0 0 0
34 0 0 0 0
35 0 7.25 0 0
36 0 7.25 0 0
37 0 7.25 0 0
38 0 7.25 0 0
39 0 1.8 0 0
40 0 7.25 0 0
41 0 7.25 0 0
42 0 0 0 0
43 0 7.25 0 0
44 0 7.25 0 0
45 0 7.25 0 0
46 0 2 0 0
47 0 2 0 0
48 0 7.25 0 0
49 0 7.25 0 0
50 0 7.25 0 0
51 0 7.25 0 0
52 0 7.25 0 0
53 0 1.8 0 0

Atoms # full

2679 2642 1 0.0544599620253164 5.3936617380863465 2.8077840959583242 179.01213123219486 0 0 0
1562 1526 1 0.0544599620253164 -1.4782170870209905 17.152409188010033 179.06741307046352 0 0 0
275 262 13 -0.1489440379746836 0.7410960558464332 2.3029755302342414 187.04872956377235 0 0 0
277 262 13 -0.1489440379746836 0.6348003961945285 2.1520672245603745 185.67744297513863 0 0 0
287 262 8 -0.1555560379746836 -0.26373727249792034 2.509125583903843 181.4876962073566 0 0 0
279 262 14 0.1183179620253164 -0.5830577935659763 1.5885208866003906 185.13955022827977 0 0 0
285 262 15 -0.0790760379746836 -0.21176758889934125 2.487139502486735 182.8959274276981 0 0 0
284 262 18 -0.0340050379746836 -0.6974656948262782 1.3922952976988874 183.67705021489252 0 0 0
286 262 3 0.1342949620253164 0.14307544501774236 3.409164050248545 183.36365579781122 0 0 0
276 262 3 0.1342949620253164 1.655042546908717 2.6735468071301596 187.49300366296455 0 0 0
274 262 9 -0.0297840379746836 -0.21394790001072567 1.798426619527406 187.965689163678 0 0 0
271 262 17 -0.0970300379746836 -0.03760562238984158 1.742072268817864 189.49179953246843 0 0 0
270 262 4 0.0933639620253164 0.72387336962495 3.7449542054502327 189.4769414783333 0 0 0
292 262 12 -0.0578530379746836 0.21417857405255525 3.6799645046100946 180.66691614253392 0 0 0
2702 2642 3 0.1342949620253164 5.5542071241018265 1.886042923190991 185.8785416432161 0 0 0
2701 2642 13 -0.1489440379746836 5.605928768529856 0.8387351148480889 185.9773056421472 0 0 0
2712 2642 16 -0.0518930379746836 5.577506932529495 1.7054540742039315 182.97664539370047 0 0 0
2711 2642 11 0.0607159620253164 5.0750955028583675 2.201787694603603 181.7547208272012 0 0 0
2703 2642 13 -0.1489440379746836 5.809384603781713 0.24553033275863673 187.2663838705212 0 0 0
2704 2642 3 0.1342949620253164 5.86075901682544 0.8862294477732049 188.183099326826 0 0 0
2557 2556 6 -1.000000037974684 4.473308893717613 3.1065490518994516 190.03036923590017 0 0 0
3329 3274 3 0.1342949620253164 5.559773237228409 5.822907339411543 186.74577726156986 0 0 0
3328 3274 13 -0.1489440379746836 5.589977520005308 6.916559831933866 186.56450097558937 0 0 0
3331 3274 3 0.1342949620253164 4.80097747102333 6.7431102391759845 184.5846182052569 0 0 0
3321 3274 19 0.0139459620253164 4.672480208573371 7.467209621651215 189.87007015728625 0 0 0
3326 3274 2 0.0733889620253164 6.189109115269567 6.1597104705145505 188.94771383615682 0 0 0
3322 3274 4 0.0933639620253164 3.8447269404878215 7.022528003561092 189.40804717917175 0 0 0
3324 3274 17 -0.0970300379746836 5.96819512748635 7.260751938466683 189.02799807918947 0 0 0
278 262 3 0.1342949620253164 1.4445550382072805 2.539930054749095 185.03724882182902 0 0 0
273 262 2 0.0733889620253164 0.9032876600217251 1.227811181943966 189.731452637272 0 0 0
3330 3274 13 -0.1489440379746836 5.277675782352018 7.452917684075551 185.3058765329508 0 0 0
2709 2642 15 -0.0790760379746836 4.094145187054447 1.4605803608426202 181.0516325494484 0 0 0
2676 2642 7 0.1123889620253164 5.731272891664599 3.467905002421709 181.12678064916503 0 0 0
293 262 1 0.0544599620253164 1.319450202359239 3.958305386885159 180.91398358817565 0 0 0
3327 3274 9 -0.0297840379746836 5.775591047816055 7.782091954428543 187.66472517702607 0 0 0
3325 3274 2 0.0733889620253164 6.804545157623174 7.7785167457989 189.54987470894113 0 0 0
294 262 1 0.0544599620253164 0.24313052165193463 3.3952789836695425 179.56211885776847 0 0 0
2681 2642 10 -0.1787800379746836 4.618355808043458 4.534861721005952 180.94789434924547 0 0 0
288 262 15 -0.0790760379746836 -0.9295847958926958 1.3716780876817074 180.83443538219097 0 0 0
295 262 1 0.0544599620253164 -0.4992059632072072 4.47283723244886 180.83147027217564 0 0 0
2682 2642 1 0.0544599620253164 4.276333980436682 4.835035924687087 181.87986436317235 0 0 0
2705 2642 18 -0.0340050379746836 5.069940087670283 0.528538371811773 183.5520910375383 0 0 0
2710 2642 3 0.1342949620253164 3.6943841042575314 1.743713090491537 180.0711369425232 0 0 0
932 894 1 0.0544599620253164 -0.6555300067075429 6.6539783219412385 180.6259040468275 0 0 0
2643 2642 22 -0.0284400379746836 6.547394606387547 2.428471928081945 183.65508492465227 0 0 0
2670 2642 11 0.0607159620253164 6.79265722738316 4.149465628229085 182.05753360147222 0 0 0
2700 2642 14 0.1183179620253164 5.496028276071614 -0.04607007371213068 184.84887717508153 0 0 0
2683 2642 1 0.0544599620253164 5.0398311358968115 5.518181457628961 180.49148497163296 0 0 0
2684 2642 1 0.0544599620253164 3.8140576694417465 4.033662950622249 180.31855045338133 0 0 0
2708 2642 8 -0.1555560379746836 3.6101649856768447 0.31543024834738564 181.64594430463583 0 0 0
2706 2642 15 -0.0790760379746836 3.9907768626403866 -0.08689597798676964 182.88623097567068 0 0 0
2669 2642 3 0.1342949620253164 7.1624190076673 5.82090993743657 180.7169047694267 0 0 0
2668 2642 15 -0.0790760379746836 7.38509690348018 5.363048634273497 181.71678048140174 0 0 0
2671 2642 16 -0.0518930379746836 7.115237000615704 3.616799387886619 183.3247556069233 0 0 0
2677 2642 10 -0.1787800379746836 6.218626915199579 3.115559538270484 179.69873861338618 0 0 0
2716 2642 1 0.0544599620253164 2.0054175346068823 -0.036656871580429254 180.05464910330747 0 0 0
282 262 13 -0.1489440379746836 -1.3654712673002045 1.3063376016735613 187.40374383256366 0 0 0
290 262 11 0.0607159620253164 -1.4203420333628387 0.26801847521127725 181.55506316669295 0 0 0
2678 2642 1 0.0544599620253164 6.991700745492866 2.30994456555657 179.75501893453804 0 0 0
3973 3906 15 -0.0790760379746836 2.0530204003735437 17.14214482923104 182.28507188450925 0 0 0
289 262 3 0.1342949620253164 -0.9493825809410315 1.2780510765315347 179.77142210126482 0 0 0
280 262 13 -0.1489440379746836 -1.5822102319696287 1.2345116721519844 186.0143508775292 0 0 0
4105 4054 2 0.0733889620253164 15.824042921423688 15.817798435395956 188.04759409344663 0 0 0
925 894 1 0.0544599620253164 0.015553760905102687 12.270758951392619 180.44512656647396 0 0 0
2667 2642 8 -0.1555560379746836 8.419890369165527 5.959671585800175 182.49508309775808 0 0 0
2691 2642 4 0.0933639620253164 4.2817409157676405 -0.4663243711656347 189.47716333880564 0 0 0
2652 2642 2 0.0733889620253164 7.645005764884003 2.822357918058122 190.12078497859972 0 0 0
3969 3906 18 -0.0340050379746836 3.620057558007832 16.815911767102204 184.68954284669618 0 0 0
291 262 16 -0.0518930379746836 -1.3748735777363355 0.2950239909802336 182.97118750996816 0 0 0
929 894 10 -0.1787800379746836 -1.5189703399393841 7.0829421886227 180.0018986302467 0 0 0
919 894 8 -0.1555560379746836 -1.4908313157921134 11.204982579121355 181.4671790604208 0 0 0
916 894 18 -0.0340050379746836 -1.4321503742531092 10.198844298616333 183.6717955412353 0 0 0
920 894 15 -0.0790760379746836 -1.70926821348295 9.987205939138041 180.85198674510664 0 0 0
2809 2790 3 0.1342949620253164 15.562214711451267 5.359686124154522 186.61134116989425 0 0 0
2821 2790 1 0.0544599620253164 14.327881727904682 7.801108638221167 183.01148220931054 0 0 0
2848 2790 14 0.1183179620253164 14.167059981714324 -0.2589280052851802 186.1577499973638 0 0 0
2856 2790 8 -0.1555560379746836 10.817227163238408 -0.4528269398784614 184.3670035800587 0 0 0
2813 2790 15 -0.0790760379746836 15.254165838904859 5.36270327027401 183.61428393298957 0 0 0
2661 2642 3 0.1342949620253164 7.879557021034093 5.691361288878759 186.39105484397427 0 0 0
2822 2790 1 0.0544599620253164 14.936388504625222 7.5163778000713055 181.4551859139601 0 0 0
2664 2642 18 -0.0340050379746836 7.955161684620174 4.304696820983359 184.19281461101042 0 0 0
2672 2642 12 -0.0578530379746836 9.068171825093543 7.289463478109558 182.1805743562197 0 0 0
2665 2642 15 -0.0790760379746836 8.632392531210746 5.433626706682408 183.7582571514273 0 0 0
2663 2642 3 0.1342949620253164 7.833571428910888 4.6464644030091 188.7719429211319 0 0 0
2660 2642 13 -0.1489440379746836 8.059831413447554 4.597002215820776 186.62601515577907 0 0 0
2853 2790 18 -0.0340050379746836 13.092582605850305 0.024583423925401304 185.14351931354378 0 0 0
2656 2642 3 0.1342949620253164 8.890496841383442 0.8646672586371288 187.24722958733835 0 0 0
2655 2642 13 -0.1489440379746836 8.647219066980648 1.8531888065680349 187.07087503456736 0 0 0
2657 2642 13 -0.1489440379746836 8.572036299803765 2.403315979907164 185.78857922770237 0 0 0
2858 2790 3 0.1342949620253164 10.209330612444395 0.8306607379343359 182.79450650325384 0 0 0
2857 2790 15 -0.0790760379746836 11.03261600447246 0.5279492370834591 183.4303437173622 0 0 0
2658 2642 3 0.1342949620253164 8.685101741273927 1.786789490937363 184.9121738019188 0 0 0
2832 2790 1 0.0544599620253164 10.324394033323427 2.3341100490738684 181.4065582583419 0 0 0
2826 2790 1 0.0544599620253164 13.191377780134804 2.407025703068188 180.02341177435483 0 0 0
2654 2642 9 -0.0297840379746836 8.301576518854745 2.6973397931047125 188.13189725515645 0 0 0
2653 2642 2 0.0733889620253164 8.07592823198949 1.1660910465444525 189.75730192906076 0 0 0
2651 2642 17 -0.0970300379746836 8.348517734642275 2.2632794930182434 189.55833378197656 0 0 0
2649 2642 4 0.0933639620253164 10.519833657563172 1.6895405327418835 189.83848653235464 0 0 0
2829 2790 10 -0.1787800379746836 11.060943609383866 3.0486744269603068 181.8130107742642 0 0 0
2666 2642 3 0.1342949620253164 9.262333974939756 5.908771393172128 184.41884019686606 0 0 0
2831 2790 1 0.0544599620253164 11.06281109013082 3.9125786124015236 181.11069724284414 0 0 0
2659 2642 14 0.1183179620253164 8.249981627046388 3.7643462955890667 185.53822038930886 0 0 0
2662 2642 13 -0.1489440379746836 8.053311284584083 4.012837723203962 187.9149118769663 0 0 0
3186 3185 6 -1.000000037974684 10.429443728115286 7.3821551163592405 189.80816460514572 0 0 0
2830 2790 1 0.0544599620253164 10.692471663732109 3.485859192554095 182.77604710872498 0 0 0
2847 2790 3 0.1342949620253164 14.409154647841225 1.6851446885371983 187.12745730875577 0 0 0
2846 2790 13 -0.1489440379746836 14.734454357136551 0.6844708336673033 187.01987309354644 0 0 0
2860 2790 16 -0.0518930379746836 13.22341527844436 1.1382341973841574 184.23342846485045 0 0 0
2791 2790 22 -0.0284400379746836 14.37420320842648 1.8725758815437428 184.2547871746917 0 0 0
2828 2790 1 0.0544599620253164 12.416326847783386 0.8089131607516351 180.47583156118282 0 0 0
2819 2790 16 -0.0518930379746836 14.449809846855104 3.0660909183632206 183.5984131310848 0 0 0
2818 2790 11 0.0607159620253164 13.442325056426428 3.409537326277942 182.6532619007079 0 0 0
2844 2790 13 -0.1489440379746836 15.633493108912837 0.31661673921293215 188.01662788242515 0 0 0
2859 2790 11 0.0607159620253164 12.168424335755843 1.3358243880325784 183.28241933095666 0 0 0
2566 2565 6 -1.000000037974684 14.084428780177735 3.399219081521386 190.0084338292717 0 0 0
2827 2790 1 0.0544599620253164 13.99522488123077 1.431324989392688 181.11792143402113 0 0 0
2825 2790 10 -0.1787800379746836 12.952282814491769 1.7132012492155968 180.8558572007939 0 0 0
2824 2790 7 0.1123889620253164 12.422225760643085 2.366955734366731 182.13165389744427 0 0 0
2816 2790 15 -0.0790760379746836 13.44138469261247 4.742463649694047 182.15924730436254 0 0 0
2817 2790 3 0.1342949620253164 12.833012480704207 5.129178018362226 181.32548570642692 0 0 0
3469 3422 19 0.0139459620253164 14.821941252476929 7.197392233488184 189.20251582939272 0 0 0
3471 3422 4 0.0933639620253164 14.15173634267202 6.804851841387887 188.46211425315283 0 0 0
2815 2790 8 -0.1555560379746836 14.316797267510657 5.735131287295992 182.63671979561713 0 0 0
2820 2790 12 -0.0578530379746836 14.21084949294056 7.190890729608085 182.13744048446918 0 0 0
2812 2790 18 -0.0340050379746836 15.334997950727402 4.053697008017317 184.14032262241003 0 0 0
2647 2642 5 0.2933639620253164 10.183230318409318 4.067216989602855 188.98234078567202 0 0 0
3967 3906 13 -0.1489440379746836 5.579176849882167 17.150405098536336 187.92221757752344 0 0 0
3472 3422 17 -0.0970300379746836 15.647290448877362 8.208546970683514 188.58587948891454 0 0 0
2644 2642 20 -0.2222520379746836 10.249737009722335 3.860157567486442 189.99408424394352 0 0 0
2648 2642 19 0.0139459620253164 9.759094185948795 2.4742090574840154 190.1421935042027 0 0 0
3470 3422 4 0.0933639620253164 15.474436030399993 6.356217412044867 189.4948296149316 0 0 0
2823 2790 1 0.0544599620253164 13.187085286845516 7.402198038882328 181.72047871247855 0 0 0
1561 1526 10 -0.1787800379746836 -1.8271347667234394 16.29677138436668 179.63922612511078 0 0 0
931 894 1 0.0544599620253164 -1.193335302895859 7.890586005312682 179.4107253817809 0 0 0
2814 2790 3 0.1342949620253164 15.95139973506148 6.084235229804265 184.08622036801845 0 0 0
4719 4686 1 0.0544599620253164 16.096958273514673 0.2940780451069374 182.560831144703 0 1 0
3339 3274 3 0.1342949620253164 3.249703054999724 7.7345915650029715 183.49758908419716 0 0 0
3347 3274 1 0.0544599620253164 1.4730258250856776 7.592333143455721 181.81418518916536 0 0 0
949 894 3 0.1342949620253164 -1.3634670225668655 5.3193491326245805 188.65310531965 0 0 0
2862 2790 1 0.0544599620253164 8.665795357290202 -0.5031800758186691 184.0085123755933 0 0 0
1563 1526 1 0.0544599620253164 -0.9509588258180839 15.715471530059409 179.96512207362838 0 0 0
910 894 3 0.1342949620253164 0.016205196411282957 8.529402940723873 185.12546937613303 0 0 0
930 894 1 0.0544599620253164 -1.7405513346150556 6.231428254451785 179.358114788983 0 0 0
2713 2642 12 -0.0578530379746836 2.4048727971434385 -0.4410698806453836 180.97075182915742 0 0 0
3348 3274 1 0.0544599620253164 1.342615637485826 8.89048565048028 180.7011717289941 0 0 0
911 894 14 0.1183179620253164 -1.0589488654975747 10.306652968793554 185.08320749878519 0 0 0
4103 4054 4 0.0933639620253164 15.210174770424736 15.736560026730501 190.2884423088211 0 0 0
3346 3274 1 0.0544599620253164 2.6007553697841845 7.694202002908988 180.37816396971957 0 0 0
915 894 3 0.1342949620253164 -1.2870387640750607 12.53626617139684 187.69622402681134 0 0 0
3345 3274 12 -0.0578530379746836 2.0845323662255106 8.277647280915117 181.21425820847082 0 0 0
908 894 3 0.1342949620253164 0.8387833545019695 8.872029246807841 187.67479917808626 0 0 0
3314 3274 1 0.0544599620253164 4.250410739671653 14.389283707494311 180.9516553221927 0 0 0
3315 3274 1 0.0544599620253164 3.0170298604807955 13.02051275874493 180.8630004984399 0 0 0
1581 1526 3 0.1342949620253164 -1.4280165521490744 15.778905388863933 187.93819494536007 0 0 0
924 894 12 -0.0578530379746836 -1.0897830381097344 12.343997652651145 180.60080245455535 0 0 0
3338 3274 15 -0.0790760379746836 3.6089999746625323 8.712390951262908 183.07934067361617 0 0 0
3340 3274 8 -0.1555560379746836 3.143588075868803 9.131777122727293 181.86303675432475 0 0 0
3332 3274 14 0.1183179620253164 5.197848385017067 8.831100374072996 185.05692541762292 0 0 0
3316 3274 1 0.0544599620253164 3.7284903486997947 13.563768745275423 182.41896124384596 0 0 0
3980 3906 1 0.0544599620253164 0.8807141188234421 14.264866414623885 182.1393338342059 0 0 0
3978 3906 1 0.0544599620253164 0.40551122803655426 14.610746053051775 183.82059583103214 0 0 0
909 894 13 -0.1489440379746836 -0.25075875996029895 9.370065700438335 185.72160350988136 0 0 0
907 894 13 -0.1489440379746836 0.18707279008127745 9.552003713403566 187.11145612788653 0 0 0
906 894 9 -0.0297840379746836 -0.1599543672328846 10.719255467996918 187.7632852128643 0 0 0
904 894 2 0.0733889620253164 1.2843346870889536 10.324917230958905 189.24533264957387 0 0 0
903 894 17 -0.0970300379746836 0.5502926225717686 11.048838052703816 188.96239702752635 0 0 0
905 894 2 0.0733889620253164 0.9672790829604085 12.019169400797086 188.81572747355042 0 0 0
3977 3906 12 -0.0578530379746836 0.6114012812671782 15.04794998047697 182.81938137018065 0 0 0
3970 3906 15 -0.0790760379746836 2.5418245151694276 15.898969736669686 184.29847452180118 0 0 0
3971 3906 3 0.1342949620253164 2.2847062378901333 15.105068715209564 185.03590777521887 0 0 0
3275 3274 22 -0.0284400379746836 6.2527815573855205 11.22667371896196 183.8166089627899 0 0 0
3344 3274 16 -0.0518930379746836 5.211526474739052 10.574330780735052 183.20525245075945 0 0 0
3337 3274 18 -0.0340050379746836 4.707186556981334 9.403862994749224 183.7505973235844 0 0 0
3333 3274 13 -0.1489440379746836 5.383321602861045 9.673632639151897 186.23006341125344 0 0 0
3334 3274 3 0.1342949620253164 5.3182208786091945 10.817647325673828 186.06556087850282 0 0 0
3343 3274 11 0.0607159620253164 4.605645811730662 11.081340784878437 181.97378838869065 0 0 0
3335 3274 13 -0.1489440379746836 5.77130505574048 9.18304635191578 187.45814824754112 0 0 0
3341 3274 15 -0.0790760379746836 3.559801833970471 10.387654474438923 181.37654970835572 0 0 0
3342 3274 3 0.1342949620253164 3.0523928847487283 10.890499634112588 180.46984588133083 0 0 0
3336 3274 3 0.1342949620253164 6.005816321055439 9.770239884931227 188.33919020669825 0 0 0
3308 3274 7 0.1123889620253164 5.165171047706953 12.406111196941321 181.35964597864924 0 0 0
3962 3906 13 -0.1489440379746836 4.8021964515468065 15.11205800548586 186.13437125900003 0 0 0
3963 3906 3 0.1342949620253164 4.35824683587976 14.383422869179162 185.5203715591395 0 0 0
3313 3274 10 -0.1787800379746836 4.004204693747419 13.412552880183227 181.3764392549427 0 0 0
3960 3906 13 -0.1489440379746836 5.4350315892442795 14.816475252650706 187.33833816104132 0 0 0
3961 3906 3 0.1342949620253164 5.650949196446376 13.778402067121815 187.60340166568403 0 0 0
3959 3906 9 -0.0297840379746836 5.820252896136098 15.844203486314587 188.2119268498536 0 0 0
3956 3906 17 -0.0970300379746836 6.377881156476433 15.561943518761009 189.6100593187983 0 0 0
914 894 13 -0.1489440379746836 -1.026347869090054 11.652645847295627 187.15291281714343 0 0 0
3958 3906 2 0.0733889620253164 6.531916513533196 14.543310427492704 189.90720528021086 0 0 0
3964 3906 14 0.1183179620253164 4.425309434131144 16.482701178122024 185.901666925666 0 0 0
3302 3274 11 0.0607159620253164 6.372694543846937 12.975822321406667 182.10377366610953 0 0 0
3309 3274 10 -0.1787800379746836 5.53230379595836 12.220551021044143 179.86097911501747 0 0 0
3301 3274 3 0.1342949620253164 6.5695535094608175 14.650811080060496 180.81363186285577 0 0 0
3979 3906 1 0.0544599620253164 -0.2732180790003089 15.536527251961562 182.43539596695655 0 0 0
3972 3906 8 -0.1555560379746836 1.7254150307336162 16.06736418581973 183.1278360394113 0 0 0
3303 3274 16 -0.0518930379746836 6.80103369389944 12.371414264491348 183.3564575238569 0 0 0
918 894 3 0.1342949620253164 -0.7738394720563165 12.159371587202392 183.2893570225545 0 0 0
3300 3274 15 -0.0790760379746836 6.949625975056582 14.131193398917171 181.6529685642962 0 0 0
3310 3274 1 0.0544599620253164 6.337518455016687 11.449718397792081 179.73531346384948 0 0 0
1583 1526 3 0.1342949620253164 -1.512819482484436 15.65266277705495 185.50960132721264 0 0 0
3951 3906 5 0.2933639620253164 3.830297784215957 16.174275545777615 189.52211173449166 0 0 0
917 894 15 -0.0790760379746836 -1.212140486241652 11.284090557651153 182.88128259519868 0 0 0
951 894 3 0.1342949620253164 -1.119393810668831 5.4715203118068 186.10937369925472 0 0 0
912 894 13 -0.1489440379746836 -1.5822372524170953 11.384430222766253 185.8975057910148 0 0 0
268 262 19 0.0139459620253164 0.18451152941065962 3.1141770917421403 190.18678566203582 0 0 0
2674 2642 1 0.0544599620253164 10.07273633970227 7.264940237889691 181.72668859474274 0 0 0
3189 3188 6 -1.000000037974684 4.290368019547749 11.957130045498928 190.3239084035646 0 0 0
3323 3274 4 0.0933639620253164 4.517961762715762 8.528447991464216 189.99706979488127 0 0 0
921 894 3 0.1342949620253164 -1.8005594449915492 9.922665395091968 179.71059993833973 0 0 0
2845 2790 3 0.1342949620253164 15.947338053594446 1.1544674256485923 188.64639333763728 0 0 0
3307 3274 1 0.0544599620253164 8.671904812915498 16.851328322613703 182.46077715165356 0 0 0
3461 3422 10 -0.1787800379746836 12.433976356495384 16.05924281114995 183.69376107016217 0 0 0
3482 3422 3 0.1342949620253164 11.951067537088944 10.228563796212182 186.58849835435268 0 0 0
3448 3422 15 -0.0790760379746836 15.56253215612748 16.53149231273395 183.45357174978312 0 0 0
2673 2642 1 0.0544599620253164 9.102894261696937 7.791998925626591 183.13781118463174 0 0 0
3423 3422 22 -0.0284400379746836 14.973802637714371 13.113344923914408 184.6467368207221 0 0 0
3286 3274 9 -0.0297840379746836 8.531939689238078 11.496232222106231 188.10789907478687 0 0 0
3473 3422 2 0.0733889620253164 15.924341020723096 8.962698968766095 189.316124557895 0 0 0
3276 3274 20 -0.2222520379746836 10.640384780102687 12.747877359382818 189.86817269958468 0 0 0
3479 3422 3 0.1342949620253164 15.790885384527215 10.682065432424004 184.55139085179508 0 0 0
3312 3274 1 0.0544599620253164 5.977651307691499 13.117540308748811 179.4099694723266 0 0 0
2675 2642 1 0.0544599620253164 8.447563142337662 7.900782510941942 181.48031984370812 0 0 0
3480 3422 14 0.1183179620253164 13.796697480434599 10.487751871022352 185.31320076010593 0 0 0
3957 3906 2 0.0733889620253164 7.425724027819611 15.926280799163912 189.8650420008271 0 0 0
3280 3274 19 0.0139459620253164 10.162843474477944 11.332792424807382 190.02969845591525 0 0 0
3306 3274 1 0.0544599620253164 8.100075871467437 16.432602484529053 180.89339702494712 0 0 0
3457 3422 10 -0.1787800379746836 13.480405777575726 15.338049878882535 181.50476972535822 0 0 0
3464 3422 1 0.0544599620253164 11.491539659678683 16.077001757435763 183.11572089100997 0 0 0
3285 3274 2 0.0733889620253164 8.5305512956656 10.022788446273974 189.69283807207933 0 0 0
3460 3422 1 0.0544599620253164 13.84010805022634 16.36395580653457 181.27927094199333 0 0 0
3488 3422 8 -0.1555560379746836 11.418267912835406 11.812809034063084 182.6635866446425 0 0 0
3441 3422 3 0.1342949620253164 15.826946093415142 12.744700017031251 186.9058024801771 0 0 0
3299 3274 8 -0.1555560379746836 8.096755687673001 14.679482502990579 182.307958659985 0 0 0
3476 3422 13 -0.1489440379746836 15.821992932993238 9.44281237895787 186.3082544068369 0 0 0
3483 3422 13 -0.1489440379746836 13.675217359054647 9.292262251676311 187.43304837636637 0 0 0
3485 3422 18 -0.0340050379746836 13.183942036760904 11.450309899655698 184.39360928189924 0 0 0
3458 3422 1 0.0544599620253164 14.174388418595486 14.657770771457848 181.04951703825662 0 0 0
3451 3422 16 -0.0518930379746836 15.511333566712434 14.409398724107426 184.57447922044858 0 0 0
3305 3274 1 0.0544599620253164 9.793482710792162 15.870526018740925 181.53618493948514 0 0 0
3493 3422 12 -0.0578530379746836 10.143404883559928 11.306171635723741 181.89760265376435 0 0 0
4104 4054 17 -0.0970300379746836 14.920275182595386 16.265486001193885 188.2910016042791 0 0 0
3463 3422 1 0.0544599620253164 12.825752296681781 17.079503698049834 183.69669639759888 0 0 0
3284 3274 2 0.0733889620253164 7.965518630293465 11.553239257770068 190.04554536005762 0 0 0
3462 3422 1 0.0544599620253164 12.245043165582386 15.664759132487314 184.7170599978784 0 0 0
3292 3274 13 -0.1489440379746836 8.520080852521469 11.16190634828153 185.67424640158737 0 0 0
3486 3422 15 -0.0790760379746836 12.064782489798702 10.998469590450512 183.6437160666129 0 0 0
3481 3422 13 -0.1489440379746836 12.995999797278696 9.992627403204958 186.41089734384846 0 0 0
3279 3274 5 0.2933639620253164 10.771039886594533 13.03510944000182 188.89330368893425 0 0 0
4101 4054 19 0.0139459620253164 15.065923313812444 16.667828023681537 189.7515317955914 0 0 0
3450 3422 11 0.0607159620253164 14.81417269633481 15.340613175577024 183.74223415181504 0 0 0
3293 3274 3 0.1342949620253164 8.533351900620943 10.436556010406203 184.78411912298372 0 0 0
3484 3422 3 0.1342949620253164 13.148254727423057 8.920657266981149 188.3261324750457 0 0 0
3489 3422 15 -0.0790760379746836 11.818307467315368 13.167709191060583 182.6366730369585 0 0 0
3491 3422 11 0.0607159620253164 12.958128337035799 13.64085359474754 183.29315056211647 0 0 0
3297 3274 15 -0.0790760379746836 8.519016705454936 14.11876986856933 183.53306102074788 0 0 0
3291 3274 14 0.1183179620253164 8.114884192035557 12.480335538994636 185.45374446709974 0 0 0
3298 3274 3 0.1342949620253164 9.22042372500305 14.65373731315283 184.1174231607424 0 0 0
3487 3422 3 0.1342949620253164 11.734987086110824 9.99393211936102 183.8312758646074 0 0 0
4116 4054 3 0.1342949620253164 12.673792118305405 17.017541143072567 186.85754150309677 0 0 0
3295 3274 3 0.1342949620253164 8.788201477975697 9.628622062145439 187.22425247948237 0 0 0
3304 3274 12 -0.0578530379746836 8.67718919350944 16.02461071315584 181.77784721415546 0 0 0
3492 3422 16 -0.0518930379746836 13.741540032584702 12.758549503499092 184.12590244665873 0 0 0
3818 3817 6 -1.000000037974684 10.572421234110038 16.198861306009693 189.45145158172633 0 0 0
4106 4054 2 0.0733889620253164 14.161107823518195 15.506331789815608 188.17081471650624 0 0 0
3459 3422 1 0.0544599620253164 12.464833644418835 15.304884704988497 181.15647117371606 0 0 0
3281 3274 4 0.0933639620253164 10.984002396754347 10.721018415067878 189.64885595918147 0 0 0
3494 3422 1 0.0544599620253164 10.254829022829364 10.178507535545988 181.6946418694973 0 0 0
3283 3274 17 -0.0970300379746836 8.773150072414934 11.061406086612315 189.52169741580343 0 0 0
3198 3197 6 -1.000000037974684 14.18244643729181 11.980447204132311 189.74942262745665 0 0 0
3290 3274 3 0.1342949620253164 8.169552132611438 14.495529705282939 186.37716931445638 0 0 0
3294 3274 13 -0.1489440379746836 8.638760688706505 10.678982765482404 186.99647614961916 0 0 0
3495 3422 1 0.0544599620253164 9.204048018896298 11.51846200882214 182.4267553805886 0 0 0
3296 3274 18 -0.0340050379746836 7.839618871895511 12.983726944908936 184.12155207589686 0 0 0
3475 3422 9 -0.0297840379746836 15.04034002929409 8.885445834708822 187.34977255655616 0 0 0
3456 3422 7 0.1123889620253164 13.435744404372839 15.086548289197628 183.07399964521355 0 0 0
3289 3274 13 -0.1489440379746836 8.218052410663395 13.392632360229484 186.55160998293945 0 0 0
3478 3422 13 -0.1489440379746836 15.222617869716828 10.247225482891945 185.32400019156188 0 0 0
3496 3422 1 0.0544599620253164 10.134215074242839 11.71742617036712 180.94102284398076 0 0 0
3490 3422 3 0.1342949620253164 11.252021992249528 13.80356896513541 181.9760688737377 0 0 0
3287 3274 13 -0.1489440379746836 8.479016927801007 12.885189519698093 187.85429078793126 0 0 0
3288 3274 3 0.1342949620253164 8.566805213996092 13.642571495648603 188.58525683893907 0 0 0
900 894 19 0.0139459620253164 -0.186971559832205 11.15691436676571 190.3467605245242 0 0 0
272 262 2 0.0733889620253164 -0.9355472907725546 1.3354289398242933 189.95342336204672 0 0 0
926 894 1 0.0544599620253164 -1.5666608047511634 12.348067808315093 179.66659324906246 0 0 0
927 894 1 0.0544599620253164 -1.2745799553613446 13.289481876822332 181.12695898252986 0 0 0
2645 2642 5 0.2933639620253164 9.566822754899496 4.4992373868425695 190.33860843576562 0 0 0
3277 3274 5 0.2933639620253164 9.895015574218462 13.32317251863924 190.27404281152047 0 0 0
3467 3422 5 0.2933639620253164 13.491927017797096 8.34270369811432 190.3570577515568 0 0 0
3311 3274 1 0.0544599620253164 4.639579971801763 11.854436707030908 179.2379548884069 0 0 0
2680 2642 1 0.0544599620253164 6.6504063221552805 3.9941806468223575 179.21884534470152 0 0 0
267 262 5 0.2933639620253164 0.9720555508076424 4.0848412152937135 191.9073835427262 0 0 0
2562 2561 6 -1.000000037974684 -1.1098083123114366 0.4901072147918517 193.7807112902777 0 0 0
264 262 20 -0.2222520379746836 0.9184652978678802 3.1183093238729973 191.53691835341013 0 0 0
266 262 5 0.2933639620253164 1.9106392978335718 2.755561030308458 191.61442417180066 0 0 0
3773 3718 3 0.1342949620253164 -0.40489052363531003 4.265978310210613 198.61361507924394 0 0 0