LAMMPS data file via write_data, version 23 Jun 2022, timestep = 2050000

5056 atoms
22 atom types
4992 bonds
23 bond types
8896 angles
43 angle types
12672 dihedrals
53 dihedral types

-1.8368657816886211 34.26286578169414 xlo xhi
-0.5226421984903813 35.02224219849028 ylo yhi
0 358.41235571790344 zlo zhi

Masses

1 1.008
2 1.008
3 1.008
4 1.008
5 1.008
6 126.9
7 12.01
8 12.01
9 12.01
10 12.01
11 12.01
12 12.01
13 12.01
14 12.01
15 12.01
16 12.01
17 12.01
18 12.01
19 12.01
20 14.01
21 207.2
22 16

Bond Coeffs # harmonic

1 330.6 1.0969
2 330.6 1.0969
3 330.6 1.0969
4 345.8 1.086
5 345.8 1.086
6 338.7 1.091
7 373.2 1.0304
8 300.9 1.5375
9 321 1.5156
10 321 1.5156
11 461.1 1.3984
12 461.1 1.3984
13 321 1.5156
14 461.1 1.3984
15 461.1 1.3984
16 461.1 1.3984
17 450.2 1.4058
18 351.4 1.4854
19 450.2 1.4058
20 450.2 1.4058
21 376.6 1.3696
22 300.9 1.5375
23 283.3 1.511

Angle Coeffs # harmonic

1 39.4 107.58
2 46.34 109.8
3 39.4 107.58
4 46.8 110.47
5 39.4 107.58
6 46.8 110.47
7 46.34 109.8
8 48.18 119.88
9 48.18 119.88
10 47.98 119.86
11 48.18 119.88
12 48.18 119.88
13 47.98 119.86
14 39.22 109.75
15 46.2 110.56
16 48.65 108.01
17 40.58 108.3
18 45.85 110.11
19 63.53 120.77
20 63.53 120.77
21 66.62 120.02
22 66.26 120.69
23 66.62 120.02
24 63.15 112.07
25 62.86 111.51
26 63.15 112.07
27 63.56 112.24
28 66.26 120.69
29 69.58 119.2
30 63.53 120.77
31 66.62 120.02
32 63.53 120.77
33 66.26 120.69
34 66.72 118.38
35 64.05 121.11
36 64.05 121.11
37 64.05 121.11
38 66.62 120.02
39 66.62 120.02
40 66.72 118.38
41 63.48 119.89
42 64.18 114.21
43 70.06 116.91

Dihedral Coeffs # opls

1 0 0 0.32 0
2 0 0 0.311111 0
3 0 0 0 0
4 0 0 0 0
5 0 0 0.311111 0
6 0 0 0.311111 0
7 0 7.25 0 0
8 0 7.25 0 0
9 0 7.25 0 0
10 0 7.25 0 0
11 0 7.25 0 0
12 0 7.25 0 0
13 0 7.25 0 0
14 0 7.25 0 0
15 0 7.25 0 0
16 0 7.25 0 0
17 0 7.25 0 0
18 0 7.25 0 0
19 0 7.25 0 0
20 0 0 0.311111 0
21 0 0 0.311111 0
22 0 0 0.311111 0
23 0 7.25 0 0
24 0 7.25 0 0
25 0 7.25 0 0
26 0 7.25 0 0
27 0 7.25 0 0
28 0 7.25 0 0
29 0 7.25 0 0
30 0 0 0.311111 0
31 0 0 0 0
32 0 0 0 0
33 0 0 0 0
34 0 0 0 0
35 0 7.25 0 0
36 0 7.25 0 0
37 0 7.25 0 0
38 0 7.25 0 0
39 0 1.8 0 0
40 0 7.25 0 0
41 0 7.25 0 0
42 0 0 0 0
43 0 7.25 0 0
44 0 7.25 0 0
45 0 7.25 0 0
46 0 2 0 0
47 0 2 0 0
48 0 7.25 0 0
49 0 7.25 0 0
50 0 7.25 0 0
51 0 7.25 0 0
52 0 7.25 0 0
53 0 1.8 0 0

Atoms # full

275 262 13 -0.1489440379746836 0.8572962143407896 2.118784783827847 187.18032960426595 0 0 0
277 262 13 -0.1489440379746836 0.6049695831950845 2.0829175046808706 185.83474185455353 0 0 0
287 262 8 -0.1555560379746836 -0.769482685405023 3.0871220174214744 181.76367910544386 0 0 0
279 262 14 0.1183179620253164 -0.703643117077609 1.859579482267013 185.37514353626105 0 0 0
285 262 15 -0.0790760379746836 -0.657667154442187 2.9566750733754787 183.13711331458464 0 0 0
284 262 18 -0.0340050379746836 -0.9717738668898726 1.829989364456559 183.86838460585474 0 0 0
278 262 3 0.1342949620253164 1.436630356304095 2.2847005185604985 185.22977183750214 0 0 0
288 262 15 -0.0790760379746836 -1.244724747655091 2.038204535724947 181.02773709430872 0 0 0
4936 4908 11 0.0607159620253164 -1.0433345177279447 0.1751860257622846 231.0053461896903 1 1 -1
4964 4908 13 -0.1489440379746836 0.06560992870001248 3.4486881365331556 226.8909467210296 1 1 -1
286 262 3 0.1342949620253164 -0.33965084055418737 3.854333192509834 183.70859198985914 0 0 0
276 262 3 0.1342949620253164 1.8994670324348684 2.205680699724067 187.67728202501547 0 0 0
282 262 13 -0.1489440379746836 -1.4469349373230178 1.5439388746987706 187.58239947121453 0 0 0
280 262 13 -0.1489440379746836 -1.7573367554103347 1.5300084234087534 186.25023787738473 0 0 0
2713 2642 12 -0.0578530379746836 2.5148905863233058 0.13385356686062677 180.57658540481145 0 0 0
2716 2642 1 0.0544599620253164 1.7834036327056555 -0.22221939445689748 181.3391282287454 0 0 0
2719 2716 5 0.2933639620253164 0.7471314579826667 3.56809307709915 217.9338708721015 1 0 -1
290 262 11 0.0607159620253164 -1.6336601071063444 0.79984721481916 181.68045828458324 0 0 0
2752 2716 1 0.0544599620253164 -1.6422376387963247 3.472224417916118 206.16369838750003 1 0 -1
269 262 4 0.0933639620253164 -0.6930419303816773 3.674599121349281 190.4310430184581 0 0 0
274 262 9 -0.0297840379746836 -0.18588781140882427 1.8554215843796378 188.1293005712055 0 0 0
267 262 5 0.2933639620253164 1.9857660373832025 3.005290131086823 191.68514848023418 0 0 0
2562 2561 6 -1.000000037974684 -1.2280165044550255 0.43381749532069336 193.7626516841639 0 0 0
272 262 2 0.0733889620253164 -0.7248082624277321 1.2975001851760217 190.1772809739573 0 0 0
273 262 2 0.0733889620253164 1.0471257344425118 1.2484497420672245 189.73416812010308 0 0 0
271 262 17 -0.0970300379746836 0.10101364328866103 1.784197578467606 189.6254260296699 0 0 0
268 262 19 0.0139459620253164 0.24363631336145564 3.1767643890710926 190.2573712122611 0 0 0
264 262 20 -0.2222520379746836 0.9426148408849933 3.2056913077048668 191.59111787594938 0 0 0
266 262 5 0.2933639620253164 0.35586799342978614 2.5580728466460676 192.16807858368898 0 0 0
299 262 1 0.0544599620253164 -1.1349708996526566 0.07006930012432377 178.98824705035534 0 0 0
3773 3718 3 0.1342949620253164 -0.11889716593141175 2.8391024467941786 199.31027681622777 0 0 0
3762 3718 5 0.2933639620253164 0.4103641176773707 2.0010901857350283 196.69620449575817 0 0 0
3761 3718 20 -0.2222520379746836 0.90762163039306 2.86472128575392 196.6674189010099 0 0 0
3769 3718 2 0.0733889620253164 1.9491381330800406 1.5957615414472137 198.97808827911297 0 0 0
3155 3086 11 0.0607159620253164 1.5266930397830543 0.3903473816141315 204.0726253620033 0 0 0
3765 3718 19 0.0139459620253164 2.277411907865269 3.045073034988422 197.3475271060213 0 0 0
3125 3086 10 -0.1787800379746836 1.2148181069063588 2.924007339830986 204.18614170498654 0 0 0
3768 3718 17 -0.0970300379746836 2.4450989386398803 2.5559991101500357 198.8396409325334 0 0 0
3120 3086 7 0.1123889620253164 2.285381341104803 1.7439979750975874 204.2388196613676 0 0 0
3127 3086 1 0.0544599620253164 0.9326533733261291 3.081078729005412 203.1723774131873 0 0 0
3128 3086 1 0.0544599620253164 0.4169246353942546 2.8824925371745 204.94035972424297 0 0 0
4971 4908 18 -0.0340050379746836 -1.7219460164314215 3.7673939988274463 228.7238209883614 1 1 -1
3153 3086 15 -0.0790760379746836 0.3138262141703503 0.10065994201241657 204.78888286413587 0 0 0
3771 3718 9 -0.0297840379746836 1.8086707828732698 3.508054976362294 199.8548772294334 0 0 0
4924 4908 3 0.1342949620253164 2.1018771544625086 2.1361230107651417 228.69499547377512 1 1 -1
3763 3718 5 0.2933639620253164 0.2229248334340539 3.5766613264606764 197.03945116722812 0 0 0
2747 2716 1 0.0544599620253164 1.1820524354847468 0.5899572063997516 208.3477444410586 1 0 -1
4526 4464 3 0.1342949620253164 2.024219825437238 -0.21491713063818585 215.15164120698591 1 1 -1
2748 2716 1 0.0544599620253164 1.5437830423511734 0.36798905682061767 210.09515200901316 1 0 -1
3154 3086 3 0.1342949620253164 -0.18224628515589858 0.7838128887420923 205.37906734722313 0 0 0
2743 2716 3 0.1342949620253164 -0.5844134136969652 2.2852997193817544 207.74266456702017 1 0 -1
2742 2716 15 -0.0790760379746836 -0.5621511506341141 2.714740076714797 208.69618058429185 1 0 -1
2740 2716 3 0.1342949620253164 1.277074741287587 2.5069077949803313 211.5273682814811 1 0 -1
2746 2716 12 -0.0578530379746836 1.4464121297331463 1.1664090447180153 209.25659884936368 1 0 -1
2741 2716 8 -0.1555560379746836 0.4753071343549189 2.3034923542563934 209.60697771684437 1 0 -1
2739 2716 15 -0.0790760379746836 0.4813808901386263 2.947589010648758 210.846635293425 1 0 -1
3124 3086 1 0.0544599620253164 1.9125800331827014 1.4210794638384028 206.38666030816336 0 0 0
2744 2716 11 0.0607159620253164 -1.616155878301148 3.62564909083243 209.0940036272055 1 0 -1
3772 3718 13 -0.1489440379746836 0.4084666266319459 3.516254856292927 199.97946619596513 0 0 0
4978 4908 16 -0.0518930379746836 -1.5499007706432697 2.618131796287827 229.55412801635148 1 1 -1
291 262 16 -0.0518930379746836 -1.5839477533645199 0.7327980791412532 183.0843997079692 0 0 0
289 262 3 0.1342949620253164 -1.247551991105492 2.160413003576267 179.9259185871323 0 0 0
2538 2537 6 -1.000000037974684 1.6489271719718046 3.0839091937903196 221.0091778514004 1 0 -1
4436 4435 6 -1.000000037974684 -0.12552875775561767 0.4729552887884605 217.72307771383723 1 1 -1
4427 4426 21 1.999999962025316 -0.3583272723135835 0.5800118937335295 220.73072375751642 1 1 -1
2720 2716 5 0.2933639620253164 -0.395054887830552 3.4945837063621377 216.7814369188594 1 0 -1
2714 2642 1 0.0544599620253164 2.0363387057699445 0.7583119759555847 179.81248310098215 0 0 0
4963 4908 3 0.1342949620253164 1.2229324001959931 3.3135225517310296 225.0072381584483 1 1 -1
4953 4908 5 0.2933639620253164 -0.46741881495582693 3.46013315766207 223.0695553057805 1 1 -1
4923 4908 13 -0.1489440379746836 2.331901894034633 1.2928082918748598 228.07411778483274 1 1 -1
4965 4908 3 0.1342949620253164 -0.004646989030296478 2.3614867527582697 226.85629189376272 1 1 -1
4437 4436 6 -1.000000037974684 -0.7976359250335181 0.5984903810998434 224.02678921225038 1 1 -1
4930 4908 18 -0.0340050379746836 1.0275764696527674 -0.09053052065422917 229.69431840486422 1 1 -1
4909 4908 22 -0.0284400379746836 -0.41531706424153936 1.8749510746297156 229.3611367514717 1 1 -1
4937 4908 16 -0.0518930379746836 -0.11737604633569232 0.7023506995980366 230.06760011730594 1 1 -1
4925 4908 14 0.1183179620253164 1.8446522147411517 0.0850769922465685 228.46698446167403 1 1 -1
3764 3718 5 0.2933639620253164 1.0276803907826257 2.968582505871286 195.65349455781075 0 0 0
2749 2716 1 0.0544599620253164 2.470437013176782 1.5942918825996744 209.08823805545262 1 0 -1
2721 2716 5 0.2933639620253164 -0.783414626396177 3.2067691420660798 218.37095365344388 1 0 -1
2718 2716 20 -0.2222520379746836 -0.26314570144775185 3.7865673667016257 217.72216959576264 1 0 -1
2738 2716 18 -0.0340050379746836 -0.5226976910185097 3.887091583043403 211.25825706633307 1 0 -1
270 262 4 0.0933639620253164 0.8371254688907295 3.8478166431370595 189.57229485947892 0 0 0
4952 4908 5 0.2933639620253164 -0.9207089751423552 3.9056287396315894 224.51302110949507 1 1 -1
3126 3086 1 0.0544599620253164 1.827966276887237 3.7785327691133426 204.46355592090674 0 0 0
932 894 1 0.0544599620253164 -1.0292196709775276 6.983373627655629 180.0519765604513 0 0 0
2635 2568 15 -0.0790760379746836 1.6923452291032206 8.196822500585782 208.87674510012815 1 0 -1
2753 2716 1 0.0544599620253164 -1.4492124398665087 5.06218992831214 206.89271803741136 1 0 -1
293 262 1 0.0544599620253164 -0.05404935778715325 5.132421979066974 181.61875437678415 0 0 0
295 262 1 0.0544599620253164 -1.107446578230964 4.7164199309370645 180.30064128354468 0 0 0
3192 3191 6 -1.000000037974684 0.6862664650320982 7.289537063542902 190.76377107603145 0 0 0
3183 3182 21 1.999999962025316 0.842087644511549 7.1233369518958565 193.88059831469326 0 0 0
3197 3196 6 -1.000000037974684 -1.336456848986209 4.968312177579314 193.88318887248622 0 0 0
265 262 5 0.2933639620253164 0.8513248428286186 4.16073910761415 191.92313428813674 0 0 0
409 336 1 0.0544599620253164 2.349793101553977 5.518937950178328 228.52102309554024 0 0 -1
3785 3718 15 -0.0790760379746836 -1.5425417571392583 8.071075536291023 204.16824496369424 0 0 0
3737 3718 3 0.1342949620253164 2.4044892173418804 7.6835213183382844 199.9015538793836 0 0 0
3775 3718 3 0.1342949620253164 -1.3571131672826524 4.6170682715935545 200.56555533858622 0 0 0
3774 3718 13 -0.1489440379746836 -0.23027076038642846 4.541906763990545 200.6557165662598 0 0 0
3193 3192 6 -1.000000037974684 0.9649294705616522 7.000122262616843 196.9038032320979 0 0 0
3781 3718 18 -0.0340050379746836 -0.09078887001162861 6.404181182870877 202.38341410456283 0 0 0
3777 3718 13 -0.1489440379746836 2.03387782065265 5.326942857104113 201.41925060174873 0 0 0
3776 3718 14 0.1183179620253164 0.600462855341944 5.404314884280231 201.51065381207806 0 0 0
3782 3718 15 -0.0790760379746836 -1.355047017792027 6.045651425962243 202.78747175269825 0 0 0
4962 4908 13 -0.1489440379746836 0.7885813555198025 3.986597956599431 225.80093014824104 1 1 -1
3779 3718 13 -0.1489440379746836 2.606282416838356 4.3703668594209795 200.5911875968197 0 0 0
3788 3718 16 -0.0518930379746836 0.4242145338031966 7.690220335270919 202.82338058450662 0 0 0
910 894 3 0.1342949620253164 -0.47969390184006166 8.283806847146675 185.4185553270161 0 0 0
2724 2716 4 0.0933639620253164 -1.673712901867423 5.049049829398342 218.14913754717264 1 0 -1
3719 3718 22 -0.0284400379746836 1.6013702224143425 8.120542724740998 202.20441263143064 0 0 0
407 336 12 -0.0578530379746836 2.5834511165951612 4.957247663384992 229.43078869000715 0 0 -1
4966 4908 14 0.1183179620253164 -0.6786372417758613 4.26572889110192 227.73016420805752 1 1 -1
3346 3274 1 0.0544599620253164 1.8226044960192127 8.132742346676002 180.63171896047075 0 0 0
2610 2568 1 0.0544599620253164 2.186905119474674 4.830996399345716 206.918556099247 1 0 -1
2609 2568 1 0.0544599620253164 1.4149196802101398 4.603314344563909 208.57668373782408 1 0 -1
2732 2716 3 0.1342949620253164 1.5963356243425115 4.9204044682459465 212.5455520876347 1 0 -1
2607 2568 10 -0.1787800379746836 1.8562657264456959 5.334344142269689 207.86051828980834 1 0 -1
2608 2568 1 0.0544599620253164 1.0365446041777624 6.007437129704279 207.54565135189782 1 0 -1
2733 2716 14 0.1183179620253164 -0.5434743292777704 4.386585680860346 212.59947999271068 1 0 -1
2636 2568 3 0.1342949620253164 1.2936930447165198 8.173072790910306 207.85136829926014 1 0 -1
2745 2716 16 -0.0518930379746836 -1.625047743449029 4.143494999082009 210.42426603196472 1 0 -1
292 262 12 -0.0578530379746836 -0.3843862293235172 4.309609838974184 181.05099093090942 0 0 0
2726 2716 2 0.0733889620253164 -1.1415075407942807 6.921095176346826 216.66579526777772 1 0 -1
2731 2716 13 -0.1489440379746836 0.6554454352945742 4.946299063688556 213.13670951925113 1 0 -1
2725 2716 17 -0.0970300379746836 -0.36893256314641176 6.174183114892921 216.63708902408518 1 0 -1
2723 2716 4 0.0933639620253164 -0.18033143825575837 5.755988425613852 218.73191891436488 1 0 -1
2728 2716 9 -0.0297840379746836 -0.4642259890463527 5.539917092752054 215.25244719840492 1 0 -1
2539 2538 6 -1.000000037974684 2.040533479375151 7.480179178249079 220.8091276294082 1 0 -1
2727 2716 2 0.0733889620253164 0.5387994942580934 6.765284181083098 216.7491008738859 1 0 -1
2729 2716 13 -0.1489440379746836 0.6492738441484238 5.563418545383881 214.4208940620254 1 0 -1
2730 2716 3 0.1342949620253164 1.4906233568084757 6.191017169361647 214.68114624291465 1 0 -1
2722 2716 19 0.0139459620253164 -0.6515411085212524 5.266134859302284 217.90703879930604 1 0 -1
2736 2716 13 -0.1489440379746836 -1.5873908958869234 4.820196569203247 214.84034640050737 1 0 -1
4968 4908 3 0.1342949620253164 -1.1273493823288219 6.373673832924624 228.0997188154959 1 1 -1
2734 2716 13 -0.1489440379746836 -1.6119930615139242 4.281457549410266 213.52055588501426 1 0 -1
4958 4908 17 -0.0970300379746836 0.8325953468459828 5.679070914761526 223.9949009096023 1 1 -1
4955 4908 19 0.0139459620253164 -0.4577101447951779 5.56908662065957 223.27681485532437 1 1 -1
408 336 1 0.0544599620253164 1.7182770872564286 4.346793780082198 229.7230093831812 0 0 -1
294 262 1 0.0544599620253164 0.5400601652533854 4.015836107126061 180.58185471654147 0 0 0
4970 4908 3 0.1342949620253164 -0.330494694499486 7.210560197752846 226.02181454718476 1 1 -1
4967 4908 13 -0.1489440379746836 -0.5816880621673584 5.687905718869128 227.4900458190435 1 1 -1
4969 4908 13 -0.1489440379746836 0.03312631183504977 6.212693759103514 226.33677856930828 1 1 -1
4961 4908 9 -0.0297840379746836 0.5496108133440629 5.29560715495675 225.42686523784053 1 1 -1
4960 4908 2 0.0733889620253164 1.6485591793783219 5.054182623102955 223.52655803596548 1 1 -1
4951 4908 20 -0.2222520379746836 -1.0223251476501132 4.1569112648594295 223.49916674625274 1 1 -1
4959 4908 2 0.0733889620253164 1.2739689329890684 6.68253758398394 224.0396087370265 1 1 -1
4956 4908 4 0.0933639620253164 -1.198691432839149 6.330863536169462 223.70684794920354 1 1 -1
4957 4908 4 0.0933639620253164 -0.4491718209538613 5.709534228039292 222.2011299695761 1 1 -1
2637 2568 11 0.0607159620253164 2.632518345061486 7.27186704675627 209.34220102679842 1 0 -1
3783 3718 3 0.1342949620253164 -1.7391884416335586 5.067371233866385 202.6362925702231 0 0 0
410 336 1 0.0544599620253164 2.6385018737972548 5.704579141530752 230.24258538159785 0 0 -1
3767 3718 4 0.0933639620253164 2.5219012426974627 4.074143051789147 197.21135553913246 0 0 0
909 894 13 -0.1489440379746836 -0.5608739740391777 9.244175642848873 185.96308792994418 0 0 0
907 894 13 -0.1489440379746836 -0.000509941551517068 9.52626374632408 187.21103019074008 0 0 0
911 894 14 0.1183179620253164 -1.2273960030842155 10.25837697176987 185.27756048529517 0 0 0
917 894 15 -0.0790760379746836 -1.2122890937629869 11.288207953613973 182.96501554747422 0 0 0
914 894 13 -0.1489440379746836 -0.6204084891755612 11.83360139999759 187.0526542874609 0 0 0
3066 3012 13 -0.1489440379746836 0.7972002201592023 12.456030181307788 226.9169510339105 1 0 -1
912 894 13 -0.1489440379746836 -1.301616838984648 11.544118757235971 185.8255433626091 0 0 0
3345 3274 12 -0.0578530379746836 1.7322917890108422 8.871457562610509 181.37495703466135 0 0 0
919 894 8 -0.1555560379746836 -1.5103423648764274 11.231977322764745 181.5714936670261 0 0 0
918 894 3 0.1342949620253164 -0.7521939942904221 12.180449801330038 183.39779831637554 0 0 0
3054 3012 1 0.0544599620253164 2.4671330933372353 10.22580679335955 235.04940776438056 1 0 -1
925 894 1 0.0544599620253164 -1.377320696283502 12.434378818493336 179.72187714166077 0 0 0
3348 3274 1 0.0544599620253164 1.124742204116491 9.654630110310112 180.9576123721476 0 0 0
3023 3012 2 0.0733889620253164 2.553438678418697 9.910881985201371 223.58836859209643 1 0 -1
916 894 18 -0.0340050379746836 -1.5748127074107663 10.177821985351466 183.80873745965195 0 0 0
2541 2540 6 -1.000000037974684 -0.6507935147222788 9.59734345641732 223.75271619489743 1 0 -1
4394 4350 5 0.2933639620253164 0.01631881140068203 12.681216907838703 197.27878718984917 0 0 0
3081 3012 11 0.0607159620253164 2.4606257711407453 11.706603315666916 232.55601604780728 1 0 -1
908 894 3 0.1342949620253164 0.5510054047634994 8.669486398104207 187.67546778679232 0 0 0
906 894 9 -0.0297840379746836 0.024374951079101592 10.817682418539823 187.72874875446564 0 0 0
4399 4350 4 0.0933639620253164 1.3467812180712972 10.618590365113116 195.7662670564859 0 0 0
3194 3193 6 -1.000000037974684 -1.45399980172666 9.462931984667385 194.01531291280068 0 0 0
904 894 2 0.0733889620253164 1.4206835797652355 10.29407740785809 189.2153823434837 0 0 0
901 894 4 0.0933639620253164 -0.8577466938762789 10.4891097669607 190.16101342371348 0 0 0
903 894 17 -0.0970300379746836 0.7480808705042239 11.150441696620858 189.0150206580495 0 0 0
900 894 19 0.0139459620253164 -0.17177601682243981 11.350847006950945 190.1669092175276 0 0 0
896 894 20 -0.2222520379746836 0.5631536833952684 11.373367616416829 191.5191200390722 0 0 0
902 894 4 0.0933639620253164 -0.7653674142850737 12.291642658904655 190.1271489018003 0 0 0
899 894 5 0.2933639620253164 0.01771857630945539 11.613264859067684 192.3378244203752 0 0 0
897 894 5 0.2933639620253164 1.112198986259023 10.51157976402834 191.64502271285403 0 0 0
905 894 2 0.0733889620253164 1.2685057616003161 12.11142054783242 188.94122647946904 0 0 0
898 894 5 0.2933639620253164 1.1938291981529294 12.158673315964483 191.47724236697235 0 0 0
4393 4350 20 -0.2222520379746836 0.5402652146017595 12.319452625452929 196.49354724516596 0 0 0
3747 3718 16 -0.0518930379746836 2.1164280175202483 9.374534687366424 202.36934092743365 0 0 0
3760 3718 1 0.0544599620253164 -0.6373084830148663 11.958581565138756 203.30119733479668 0 0 0
3757 3718 10 -0.1787800379746836 -1.0247855742289496 10.929317779656442 203.48420607031758 0 0 0
4406 4350 13 -0.1489440379746836 0.15946049027804032 11.924199592127335 200.54797065943444 0 0 0
4403 4350 9 -0.0297840379746836 1.9550138699521742 11.680772450388917 199.0436909934923 0 0 0
4397 4350 19 0.0139459620253164 1.0780524427243547 10.963122212972033 196.77708481717042 0 0 0
4404 4350 13 -0.1489440379746836 0.9474684044063657 11.0858917858374 199.79739225997642 0 0 0
4405 4350 3 0.1342949620253164 0.7640096458732788 10.008870856910237 199.7092609286258 0 0 0
4407 4350 3 0.1342949620253164 -0.8453596992396508 11.50614169129559 200.72971048921752 0 0 0
3752 3718 7 0.1123889620253164 0.12808623543522568 9.99950894793277 203.97378280163593 0 0 0
3746 3718 11 0.0607159620253164 1.4201059931339992 10.335687539277082 203.2034685101819 0 0 0
4398 4350 4 0.0933639620253164 0.24500710587147245 10.395051362901768 197.2147599536347 0 0 0
3082 3012 16 -0.0518930379746836 2.2683413896246343 11.912014013927314 231.2161309478997 1 0 -1
3079 3012 15 -0.0790760379746836 1.725726003464889 12.52160409582001 233.41225890908933 1 0 -1
927 894 1 0.0544599620253164 -0.1019199212049553 12.744298842857653 181.00333344971096 0 0 0
4396 4350 5 0.2933639620253164 -0.11787557056818398 12.239084603608257 195.76483288512574 0 0 0
3744 3718 15 -0.0790760379746836 1.9959610740662364 11.628017990950484 203.32033153740358 0 0 0
4400 4350 17 -0.0970300379746836 2.3395629213144513 11.052809596006512 197.74390342698007 0 0 0
3745 3718 3 0.1342949620253164 1.4964285317945893 12.437908975180841 203.95310204958702 0 0 0
3069 3012 3 0.1342949620253164 1.034423273300823 11.144070784718526 228.44901374272953 1 0 -1
3080 3012 3 0.1342949620253164 1.9505827917374374 12.333432696006637 234.4984896619517 1 0 -1
3756 3718 1 0.0544599620253164 1.2062191054365734 9.611669334201617 205.85950438172753 0 0 0
924 894 12 -0.0578530379746836 -1.1743425957975768 12.56659731429896 180.8361618801121 0 0 0
2642 2568 1 0.0544599620253164 0.6185563172137833 10.974879201485974 208.30746283199034 1 0 -1
2634 2568 8 -0.1555560379746836 1.2861854715879295 9.262353056939407 209.65015706055092 1 0 -1
2640 2568 1 0.0544599620253164 -0.17161008209743867 10.947099311500072 209.8652635862853 1 0 -1
2632 2568 15 -0.0790760379746836 1.938909917861954 9.568789953886132 210.86736476004467 1 0 -1
2639 2568 12 -0.0578530379746836 0.23890350777645186 10.248259794005609 209.05704584659594 1 0 -1
2633 2568 3 0.1342949620253164 1.6148065476327684 10.40232329235608 211.48678113063238 1 0 -1
3753 3718 10 -0.1787800379746836 0.3473991408012387 10.21096996519243 205.4691197594394 0 0 0
3755 3718 1 0.0544599620253164 -0.6058163404236541 9.97125968631305 206.02789872959227 0 0 0
3754 3718 1 0.0544599620253164 0.49671076463951125 11.250012164294628 205.74333312486843 0 0 0
2641 2568 1 0.0544599620253164 -0.6151320268180005 9.75239045335298 208.51275122880327 1 0 -1
3170 3169 6 -1.000000037974684 1.8296567556607026 11.91114416687917 220.5329351424769 1 0 -1
2540 2539 6 -1.000000037974684 -0.674445827485443 10.083205483411406 217.38663618262333 1 0 -1
2531 2530 21 1.999999962025316 -0.3435838227094816 9.558496386246777 220.81178642946583 1 0 -1
2614 2568 5 0.2933639620253164 2.1951417565842943 9.676400616130067 218.0008075762239 1 0 -1
3053 3012 1 0.0544599620253164 1.715510761725113 9.533385542976234 233.54970929333672 1 0 -1
3758 3718 1 0.0544599620253164 -1.5371742309995802 10.557612562808847 202.54406727017533 0 0 0
3067 3012 3 0.1342949620253164 0.6374395652149623 11.615876527897935 226.27394881431795 1 0 -1
3068 3012 13 -0.1489440379746836 1.0132177289498452 12.19416345923547 228.26787966182732 1 0 -1
3787 3718 11 0.0607159620253164 -0.29290063451659587 8.517501615620187 203.73109322689305 0 0 0
3347 3274 1 0.0544599620253164 1.202788316519612 8.55302345910872 182.31200212166698 0 0 0
3051 3012 10 -0.1787800379746836 2.6159527292243903 9.81522784229565 234.03162395320268 1 0 -1
414 410 5 0.2933639620253164 -1.8284882578753994 8.50312873365586 196.71337530263352 0 0 0
915 894 3 0.1342949620253164 -0.5882618251375935 12.794337542636708 187.44954345604637 0 0 0
3977 3906 12 -0.0578530379746836 0.680560895721886 15.369794575346207 183.06361323762 0 0 0
3979 3906 1 0.0544599620253164 0.5336208399318736 15.170291832506289 181.96465783094072 0 0 0
3978 3906 1 0.0544599620253164 -0.20610655516526966 15.916705898112966 183.46464860530517 0 0 0
1581 1526 3 0.1342949620253164 -1.223880822473797 14.888874121195286 187.8383286948059 0 0 0
3980 3906 1 0.0544599620253164 0.6996860740465929 14.344208547206945 183.56957632609243 0 0 0
926 894 1 0.0544599620253164 -1.6029106195545744 13.424482880322916 181.39797062718657 0 0 0
1583 1526 3 0.1342949620253164 -1.2030066564710893 15.058684110281867 185.38968776229208 0 0 0
3075 3012 18 -0.0340050379746836 1.3373655590089422 12.90823401624398 230.77256752432993 1 0 -1
1561 1526 10 -0.1787800379746836 -1.7881739707807967 17.051054742162055 179.71481594931404 0 0 0
4411 4350 13 -0.1489440379746836 2.266220336014819 13.042059785511343 199.16621111162502 0 0 0
3972 3906 8 -0.1555560379746836 1.9069540666587594 16.264109449563442 183.3274070822032 0 0 0
3236 3200 1 0.0544599620253164 1.5769793746693634 15.426977813629621 207.1312675958706 1 0 -1
3269 3200 11 0.0607159620253164 2.537112062102171 16.435052856484567 209.49537453778754 1 0 -1
3824 3823 6 -1.000000037974684 0.7849821780307173 15.418240948552777 190.4537295329501 0 0 0
3815 3814 21 1.999999962025316 0.9052003873763279 16.112819436345003 193.37223753312787 0 0 0
3829 3828 6 -1.000000037974684 -1.3830509735572685 13.900543005568958 193.57222208580689 0 0 0
4385 4350 10 -0.1787800379746836 -1.000303736736507 16.638419949792176 205.8787418895737 0 0 0
4395 4350 5 0.2933639620253164 1.2087924026820553 13.04130166832591 196.1882568740232 0 0 0
3353 3348 5 0.2933639620253164 -1.7048047749552995 13.007886478013381 217.3419987611566 1 0 -1
3825 3824 6 -1.000000037974684 0.8234343254514818 15.919152326073196 196.8208288720535 0 0 0
4410 4350 3 0.1342949620253164 1.5892335231274186 15.036794637379533 199.982362846156 0 0 0
4420 4350 16 -0.0518930379746836 -0.11782164685532193 15.236376471776687 202.44292552100302 0 0 0
4409 4350 13 -0.1489440379746836 1.4753400900114853 13.930463224234224 199.94898217784873 0 0 0
4413 4350 18 -0.0340050379746836 -0.5705416503485323 14.250917629519144 201.52566490915973 0 0 0
4351 4350 22 -0.0284400379746836 1.172217916207546 15.685084622248137 202.3061457985662 0 0 0
4419 4350 11 0.0607159620253164 -1.015522208483219 15.76124184032496 203.39768641667797 0 0 0
4408 4350 14 0.1183179620253164 0.34243687129721656 13.382889741763822 200.6514804635085 0 0 0
4379 4350 16 -0.0518930379746836 1.7291040311034018 16.587542820092708 203.1839530301396 0 0 0
1564 1526 1 0.0544599620253164 -0.8674877719158178 16.571228227057112 180.1162044977937 0 0 0
3057 3012 5 0.2933639620253164 0.1900053057426645 13.560438568999649 222.4280178214625 1 0 -1
3084 3012 1 0.0544599620253164 0.007942602696489498 13.701408398276545 235.02373111781392 1 0 -1
4388 4350 1 0.0544599620253164 -0.38944058493874123 15.732563193480534 206.16411480843453 0 0 0
3241 3200 1 0.0544599620253164 1.1846029760112067 14.112095962754712 210.73466044172045 1 0 -1
3240 3200 1 0.0544599620253164 0.2590319332102282 14.839608908799534 209.39627587149107 1 0 -1
3239 3200 10 -0.1787800379746836 1.1323643024202126 14.211671177774628 209.61438455708793 1 0 -1
3242 3200 1 0.0544599620253164 0.9347773866328939 13.245081539255732 209.19700519875482 1 0 -1
3077 3012 3 0.1342949620253164 -0.11771697288400107 14.523763734522085 231.46023903199045 1 0 -1
3356 3348 4 0.0933639620253164 -1.254157939411554 15.60403352416327 217.04464462555813 1 0 -1
3970 3906 15 -0.0790760379746836 2.5856534303440384 16.050448641178374 184.53833961224626 0 0 0
3352 3348 5 0.2933639620253164 -0.3095377344500938 12.906600796087993 218.14814841964437 1 0 -1
3362 3348 3 0.1342949620253164 0.09612886835875312 15.697216552521578 213.43344560278538 1 0 -1
3360 3348 9 -0.0297840379746836 -0.8366787814788359 14.164318130815838 214.64013095484262 1 0 -1
3354 3348 19 0.0139459620253164 -0.45973096026129534 14.835436651381427 217.1835090650731 1 0 -1
3357 3348 17 -0.0970300379746836 0.07319953291152759 14.353217322519871 215.80675522001155 1 0 -1
3358 3348 2 0.0733889620253164 0.8875594338996688 15.01869300642024 215.4594305881149 1 0 -1
3171 3170 6 -1.000000037974684 1.8689005515104318 16.555642769532867 220.20409511687245 1 0 -1
3350 3348 20 -0.2222520379746836 -1.0244849442890014 13.591076190930494 217.86824658579727 1 0 -1
3355 3348 4 0.0933639620253164 0.3366412841995954 15.265832083994603 217.8182578965618 1 0 -1
3361 3348 13 -0.1489440379746836 -0.6020938865059544 14.896870386188551 213.47110823971553 1 0 -1
3359 3348 2 0.0733889620253164 0.599000418408784 13.417229395754243 216.12947538224412 1 0 -1
3070 3012 14 0.1183179620253164 1.1557215127490947 13.182857309954558 229.2686813569778 1 0 -1
4378 4350 11 0.0607159620253164 1.0076359539775017 17.100246598314385 204.26658561775315 0 0 0
3065 3012 9 -0.0297840379746836 0.8490808823248337 13.780379654452698 226.5370061695165 1 0 -1
3072 3012 3 0.1342949620253164 1.054044790297646 15.42050325103677 229.51599228323022 1 0 -1
3059 3012 19 0.0139459620253164 -0.500781833871512 13.994157757856359 224.41949865574466 1 0 -1
3074 3012 3 0.1342949620253164 0.831299888243678 15.871714296246406 227.10045176180495 1 0 -1
3063 3012 2 0.0733889620253164 1.4196830541584238 15.137248442139475 224.90967777963033 1 0 -1
3055 3012 20 -0.2222520379746836 -0.47032830166243844 14.206916168898285 222.9324417538597 1 0 -1
3071 3012 13 -0.1489440379746836 1.04402632059553 14.538907372863772 228.78510534226 1 0 -1
3058 3012 5 0.2933639620253164 -0.2385974848804182 15.162250835890534 222.6720179108841 1 0 -1
3062 3012 17 -0.0970300379746836 0.9158723034144252 14.124074983391933 225.05048823438 1 0 -1
3061 3012 4 0.0933639620253164 -1.2380499873425914 14.716916951936017 224.85375215108593 1 0 -1
3073 3012 13 -0.1489440379746836 0.9364357184244019 14.859776841700587 227.44191446227245 1 0 -1