ITEM: TIMESTEP
10000
ITEM: NUMBER OF ATOMS
1040
ITEM: BOX BOUNDS pp pp pp
-3.1000000000000001e+00 2.1700000000000003e+01
-6.9095259441535461e+01 8.1495259441535467e+01
-3.1000000000000001e+00 2.1700000000000003e+01
ITEM: ATOMS id type x y z
1 13 0.515537 0.219633 6.85264
2 5 3.53026 0.243305 6.88525
3 5 0.29211 -2.7858 7.08194
4 5 0.598039 0.397231 9.97019
5 12 3.92519 -2.02737 9.74171
6 6 4.52737 -7.09142 9.70657
7 4 3.8255 -2.12315 8.71621
8 4 4.93734 -2.11117 9.93561
9 4 3.66196 -1.05591 9.98914
10 10 3.12761 -3.07178 10.5032
11 3 3.2428 -2.84522 11.5671
12 3 2.07353 -2.95559 10.2271
13 7 4.12337 -5.27847 11.28
14 6 4.55914 -6.59233 11.0231
15 8 3.60599 -4.48436 10.2428
16 7 3.55695 -4.99902 8.94115
17 6 4.03565 -6.28675 8.66242
18 1 4.18951 -4.86627 12.288
19 1 4.96637 -7.18589 11.8365
20 1 3.19678 -4.37011 8.12677
21 1 4.89811 -8.08949 9.49543
22 1 4.03317 -6.63446 7.63276
23 13 0.577431 0.261958 13.0456
24 5 3.76125 0.208595 13.0317
25 5 0.285554 -2.71263 13.0721
26 5 0.286733 0.336569 16.2409
27 12 4.11626 -2.01829 16.0471
28 6 3.52499 -6.7121 14.65
29 4 4.00718 -2.09087 15.0196
30 4 5.12492 -2.1687 16.2308
31 4 3.94033 -1.03122 16.3069
32 10 3.24173 -3.00209 16.8101
33 3 3.50477 -2.96347 17.8736
34 3 2.21427 -2.63101 16.7137
35 7 4.58637 -5.01456 16.038
36 6 4.67989 -6.16231 15.2326
37 8 3.34199 -4.40385 16.2524
38 7 2.19671 -4.96128 15.6832
39 6 2.28444 -6.08693 14.8608
40 1 5.48881 -4.53232 16.4094
41 1 5.65528 -6.5738 15.0016
42 1 1.25606 -4.43367 15.796
43 1 3.59647 -7.57245 13.9915
44 1 1.39484 -6.43717 14.3428
45 13 0.685114 0.468653 19.2678
46 5 3.70438 0.368598 19.154
47 5 0.590434 -2.70053 19.6482
48 5 1.00941 0.535443 -2.30687
49 12 3.87779 -2.02993 -2.99597
50 6 4.12799 -7.07216 -1.79225
51 4 3.42844 -2.26952 20.9005
52 4 4.89455 -2.16779 21.6746
53 4 3.72706 -1.01074 -2.88686
54 10 3.28756 -2.81763 -1.82843
55 3 3.64471 -2.38811 -0.883149
56 3 2.20949 -2.65649 -1.87824
57 7 4.89771 -4.75643 -1.91614
58 6 5.17588 -6.13295 -1.85515
59 8 3.575 -4.30826 -1.85954
60 7 2.53139 -5.2475 -1.79005
61 6 2.7982 -6.62763 -1.76555
62 1 5.70536 -4.0264 -1.96189
63 1 6.20971 -6.46263 -1.84542
64 1 1.50886 -4.88495 -1.73094
65 1 4.3507 -8.13356 -1.75086
66 1 1.97826 -7.3379 -1.71091
67 13 0.630464 0.43286 0.84497
68 5 3.7335 0.480761 1.02178
69 5 0.323609 -2.7096 0.796684
70 5 0.364236 0.516666 3.87195
71 12 4.11665 -2.07984 3.60531
72 6 3.22821 -7.10819 3.36212
73 4 4.08383 -2.2127 2.57879
74 4 5.08235 -2.30955 3.90381
75 4 4.00155 -1.06176 3.77173
76 10 3.06772 -2.90086 4.34471
77 3 3.22301 -2.74764 5.41561
78 3 2.08025 -2.49843 4.08568
79 7 4.3596 -5.03296 3.92151
80 6 4.41544 -6.39122 3.57256
81 8 3.11991 -4.38618 4.06036
82 7 1.93192 -5.1126 3.88907
83 6 1.98636 -6.47007 3.53214
84 1 5.28001 -4.4695 4.06502
85 1 5.38152 -6.86847 3.44356
86 1 0.973664 -4.59827 3.98565
87 1 3.26702 -8.14778 3.0548
88 1 1.0608 -7.00866 3.35418
89 13 0.53654 6.377 6.93366
90 5 3.67924 6.47459 7.05951
91 5 0.437632 3.32939 7.09086
92 5 0.642231 6.44704 10.1324
93 11 3.33763 2.91252 9.33082
94 9 4.10822 3.74266 10.3481
95 2 3.86065 4.80199 10.2212
96 2 5.18099 3.61234 10.1738
97 2 3.86891 3.41306 11.3658
98 4 3.53278 3.19642 8.34966
99 4 2.31289 2.97355 9.46
100 4 3.58713 1.91065 9.39855
101 13 0.729181 6.33673 13.1692
102 5 3.83656 6.27349 13.3615
103 5 0.434985 3.2986 13.1034
104 5 0.646383 6.50652 16.175
105 11 4.38222 3.74816 16.6258
106 9 3.33889 2.95545 15.8372
107 2 3.47792 3.1388 14.7677
108 2 2.33063 3.26805 16.1379
109 2 3.46279 1.88743 16.0336
110 4 4.32079 4.76522 16.4306
111 4 5.35491 3.46315 16.4036
112 4 4.27371 3.64005 17.6535
113 13 0.628193 6.53953 19.3202
114 5 3.96823 6.46356 19.0895
115 5 0.689914 3.53613 19.3369
116 5 0.726344 6.94685 -2.38197
117 11 4.08347 2.95144 -1.60153
118 9 3.53038 3.87623 -2.67361
119 2 3.73202 3.45711 21.1333
120 2 3.99439 4.86526 -2.59424
121 2 2.44817 3.97051 -2.53586
122 4 5.11021 2.84197 -1.66412
123 4 3.67694 2.00104 -1.67577
124 4 3.86375 3.28481 -0.643436
125 13 0.861536 6.59187 0.713176
126 5 3.92402 6.44246 0.545609
127 5 0.747699 3.54151 0.776056
128 5 0.755576 6.61028 3.82987
129 11 4.31836 3.84269 3.35341
130 9 3.2663 3.19023 4.23137
131 2 3.41616 3.47562 5.27621
132 2 3.37621 2.11147 4.12064
133 2 2.25949 3.48385 3.91809
134 4 5.28525 3.59529 3.64187
135 4 4.25157 4.87545 3.37694
136 4 4.22205 3.56548 2.35982
137 13 0.534851 12.6507 6.86288
138 5 3.62338 12.5592 7.17631
139 5 0.417084 9.51939 6.97871
140 5 0.488387 12.4628 9.93902
141 5 0.552285 15.7474 7.2162
142 11 3.04437 9.64446 9.4673
143 9 4.00008 8.90917 10.4077
144 2 5.02702 9.23913 10.2108
145 2 3.92948 7.82897 10.2415
146 2 3.74075 9.13467 11.4462
147 4 3.26781 9.46628 8.46907
148 4 3.05704 10.6719 9.59995
149 4 2.06141 9.34394 9.59608
150 12 3.17125 14.9627 9.82295
151 6 4.27682 19.8404 8.90242
152 4 3.26831 15.0431 8.79568
153 4 2.18613 15.2089 10.0294
154 4 3.27058 13.9598 10.0624
155 10 4.17303 15.8472 10.5505
156 3 3.96618 15.8036 11.6238
157 3 5.16529 15.4177 10.3766
158 7 2.99181 17.9511 9.73804
159 6 3.03549 19.2342 9.15752
160 8 4.18387 17.2792 10.0625
161 7 5.41677 17.888 9.8253
162 6 5.46743 19.156 9.22363
163 1 2.03655 17.4542 9.89222
164 1 2.10819 19.7215 8.86869
165 1 6.34183 17.3509 10.0409
166 1 4.32707 20.8091 8.41489
167 1 6.43534 19.5734 8.96662
168 13 0.672823 12.6557 13.0014
169 5 3.67266 12.4017 12.8129
170 5 0.618806 9.51565 13.0714
171 5 0.952045 12.559 16.1859
172 5 0.899329 15.6666 13.0755
173 11 3.20089 9.03841 15.8885
174 9 4.22708 9.88333 16.6301
175 2 4.14761 9.69291 17.7053
176 2 4.01541 10.9371 16.4327
177 2 5.24143 9.631 16.3012
178 4 2.23384 9.26443 16.1902
179 4 3.32799 8.02658 16.0819
180 4 3.24349 9.16293 14.8599
181 12 3.67467 14.9545 15.5233
182 6 2.6776 19.8343 16.6339
183 4 3.97535 15.288 14.5902
184 4 2.64259 14.9427 15.5098
185 4 3.98071 13.9694 15.6075
186 10 4.21839 15.8181 16.6501
187 3 3.98122 15.3413 17.6082
188 3 5.30734 15.8343 16.5425
189 7 2.31616 17.4428 16.4347
190 6 1.80813 18.748 16.4369
191 8 3.68053 17.2211 16.6276
192 7 4.55382 18.2984 16.7902
193 6 4.05065 19.6133 16.8081
194 1 1.6258 16.6093 16.3055
195 1 0.738353 18.8938 16.2973
196 1 5.61634 18.1024 16.9431
197 1 2.27741 20.8416 16.6395
198 1 4.73058 20.4447 16.9654
199 13 0.774049 12.5913 19.2809
200 5 3.84361 12.5644 19.5593
201 5 0.764064 9.50874 18.9644
202 5 0.660151 12.5269 -2.21342
203 5 0.726368 15.5278 19.4898
204 11 3.40624 10.0085 -1.92895
205 9 4.31369 9.13538 -2.78044
206 2 4.12932 9.34421 20.9604
207 2 4.11068 8.07846 -2.57513
208 2 5.35734 9.36816 -2.54947
209 4 2.39973 9.78153 -2.05424
210 4 3.52602 11.0173 -2.13516
211 4 3.60448 9.89173 -0.919034
212 12 3.29181 14.953 -2.55506
213 6 3.32363 20.0641 -2.87176
214 4 3.26778 15.0105 21.2134
215 4 2.3215 15.1028 -2.226
216 4 3.55124 13.9772 -2.32374
217 10 4.25142 15.9568 -1.95592
218 3 4.19124 15.8365 -0.871952
219 3 5.27404 15.7216 -2.26648
220 7 3.70388 18.2914 -1.25622
221 6 3.42234 19.6353 -1.53641
222 8 3.92258 17.3857 -2.30559
223 7 3.81343 17.804 21.1609
224 6 3.51254 19.1438 20.8786
225 1 3.7496 17.9319 -0.225094
226 1 3.25852 20.3311 -0.718904
227 1 3.951 17.0955 20.341
228 1 3.08234 21.0988 -3.0924
229 1 3.40598 19.4507 19.8413
230 13 0.694586 12.807 0.696436
231 5 3.81167 12.7653 0.583693
232 5 1.11192 9.69028 0.884624
233 5 0.886693 12.672 3.86629
234 5 1.05079 15.8125 0.756782
235 11 4.15301 10.1358 3.18216
236 9 3.51036 9.30081 4.27374
237 2 3.88472 9.59354 5.25966
238 2 3.75075 8.24727 4.09631
239 2 2.43055 9.45877 4.24303
240 4 5.18481 10.0888 3.22466
241 4 3.89348 11.1345 3.26072
242 4 3.87474 9.84225 2.22741
243 12 3.66104 15.0623 3.35278
244 6 2.6956 20.0199 3.60158
245 4 4.01777 15.2432 2.396
246 4 2.63125 15.0924 3.27297
247 4 3.91407 14.0871 3.58414
248 10 4.19903 16.0591 4.36436
249 3 3.93166 15.7139 5.37192
250 3 5.28879 16.042 4.27669
251 7 2.29816 17.664 4.03004
252 6 1.80697 18.9433 3.75451
253 8 3.67994 17.4557 4.14146
254 7 4.5723 18.5201 3.98767
255 6 4.08292 19.8125 3.72189
256 1 1.61296 16.8226 4.12795
257 1 0.734426 19.0791 3.63757
258 1 5.64192 18.3294 4.03966
259 1 2.31292 21.0102 3.37771
260 1 4.77825 20.6333 3.57276
261 13 6.67328 0.225543 6.9116
262 5 9.82531 0.151877 6.89018
263 5 6.36645 -2.80119 7.01405
264 5 6.65318 0.348763 10.0056
265 12 10.1355 -2.06958 9.87445
266 6 9.41617 -6.9808 9.01692
267 4 9.97519 -2.13432 8.85515
268 4 11.1377 -2.28867 10.0262
269 4 10.0128 -1.07604 10.1497
270 10 9.21577 -2.99643 10.6535
271 3 9.45785 -2.90067 11.7149
272 3 8.19425 -2.6327 10.5122
273 7 10.5344 -5.05437 9.99441
274 6 10.5974 -6.32066 9.38971
275 8 9.29324 -4.43943 10.2128
276 7 8.11048 -5.11761 9.88949
277 6 8.17197 -6.38296 9.28367
278 1 11.4538 -4.52137 10.231
279 1 11.5686 -6.74625 9.15365
280 1 7.15226 -4.618 10.0373
281 1 9.46527 -7.93439 8.50065
282 1 7.25295 -6.86514 8.96789
283 13 6.77001 0.436953 13.0776
284 5 9.82123 0.536181 13.0262
285 5 6.64807 -2.68392 13.5132
286 5 6.79242 0.492098 16.2926
287 12 9.60102 -2.02235 15.8151
288 6 9.91692 -7.15759 15.6737
289 4 8.56855 -2.05511 15.8875
290 4 9.83701 -2.21335 14.8214
291 4 9.88363 -1.03914 15.9862
292 10 10.3013 -2.9979 16.7674
293 3 11.3586 -2.72096 16.7789
294 3 9.91608 -2.84007 17.7825
295 7 11.3166 -5.22189 16.134
296 6 11.201 -6.57327 15.7628
297 8 10.171 -4.45706 16.3938
298 7 8.897 -5.05246 16.332
299 6 8.77085 -6.40063 15.9625
300 1 12.295 -4.74373 16.1924
301 1 12.0905 -7.1552 15.5351
302 1 8.0198 -4.43828 16.5361
303 1 9.82723 -8.19667 15.3748
304 1 7.78435 -6.84258 15.8916
305 13 6.88171 0.393329 19.2877
306 5 9.93083 0.187985 19.3618
307 5 6.6281 -2.73291 19.2405
308 5 6.72368 0.292444 -2.37277
309 12 10.4286 -2.07208 -2.59855
310 6 9.97497 -7.09854 21.4901
311 4 10.3507 -2.14917 21.1731
312 4 11.4217 -2.2598 -2.36603
313 4 10.2443 -1.07991 -2.36202
314 10 9.4752 -3.03289 -1.90292
315 3 9.61881 -2.92978 -0.822036
316 3 8.45898 -2.69092 -2.1333
317 7 10.9117 -5.09351 -2.29595
318 6 11.0785 -6.39412 -2.80565
319 8 9.64764 -4.4792 -2.33201
320 7 8.56147 -5.17902 -2.84712
321 6 8.7055 -6.49536 21.4883
322 1 11.7648 -4.52987 -1.91714
323 1 12.0705 -6.83255 -2.82734
324 1 7.59841 -4.68714 -2.92692
325 1 10.096 -8.09219 21.0706
326 1 7.84444 -7.00792 21.0677
327 13 6.91102 0.15323 0.802497
328 5 9.86577 0.397798 0.667476
329 5 6.74546 -2.8028 1.07081
330 5 6.85059 0.264657 3.92574
331 12 10.1089 -2.16225 3.39322
332 6 10.5043 -7.23719 3.88095
333 4 9.8176 -2.34983 2.41572
334 4 11.1376 -2.24441 3.41085
335 4 9.89492 -1.16324 3.57666
336 10 9.43134 -3.08908 4.39085
337 3 9.69074 -2.78524 5.40889
338 3 8.35231 -2.93294 4.27755
339 7 11.154 -4.93585 4.28002
340 6 11.5119 -6.28381 4.11808
341 8 9.80731 -4.53969 4.19931
342 7 8.80672 -5.49186 3.96083
343 6 9.15487 -6.84357 3.80411
344 1 11.9211 -4.18639 4.47453
345 1 12.557 -6.57655 4.19413
346 1 7.77069 -5.15836 3.89508
347 1 10.7715 -8.28211 3.76336
348 1 8.38074 -7.57732 3.60446
349 13 6.8691 6.43534 6.91693
350 5 9.98922 6.09681 6.77601
351 5 6.43959 3.3339 6.95732
352 5 7.18064 6.39834 10.0014
353 11 10.4209 3.95606 10.3767
354 9 9.54943 3.02738 9.54283
355 2 9.68047 3.23268 8.47808
356 2 8.50003 3.1845 9.8134
357 2 9.82155 1.98897 9.7472
358 4 10.1571 4.95191 10.2467
359 4 11.427 3.87131 10.1435
360 4 10.3298 3.74877 11.3892
361 13 6.96328 6.42547 13.1887
362 5 10.0717 6.54145 13.0167
363 5 6.99026 3.4017 13.1687
364 5 7.10105 6.43493 16.2767
365 11 10.3443 3.99062 15.6031
366 9 9.65877 3.11411 16.6328
367 2 9.8737 2.06565 16.4092
368 2 8.58296 3.28411 16.5623
369 2 10.0036 3.3562 17.6445
370 4 10.0587 3.75794 14.6313
371 4 11.3717 3.8808 15.6439
372 4 10.1424 4.99585 15.7435
373 13 6.99059 6.50385 19.342
374 5 10.0851 6.44323 19.3728
375 5 6.82181 3.45218 19.4638
376 5 7.18065 6.49373 -2.44074
377 11 9.47967 3.80616 -1.82862
378 9 10.3668 3.0482 -2.7908
379 2 10.1037 3.30303 20.9762
380 2 10.2251 1.97812 -2.62265
381 2 11.4102 3.31191 -2.59171
382 4 8.46975 3.66348 -2.01496
383 4 9.63582 4.82601 -1.9042
384 4 9.64727 3.5474 -0.837949
385 13 6.89257 6.69236 0.705882
386 5 9.96836 6.50177 0.546989
387 5 6.89913 3.4661 0.823514
388 5 6.84044 6.37671 3.75416
389 11 10.2594 4.02643 3.24035
390 9 9.56606 3.0039 4.12069
391 2 9.8986 3.11158 5.15552
392 2 9.79681 1.99223 3.77496
393 2 8.48914 3.1869 4.07969
394 4 11.2825 3.87687 3.20428
395 4 10.1206 4.99561 3.58473
396 4 9.91714 3.99652 2.26396
397 13 6.79141 12.5996 6.99843
398 5 10.0463 12.5529 6.65387
399 5 6.8708 9.52521 7.03798
400 5 7.10225 12.5202 10.0105
401 5 7.14476 15.6908 6.98941
402 11 9.19887 9.60817 10.4608
403 9 10.3628 9.22635 9.56754
404 2 10.3124 8.15277 9.39098
405 2 11.3164 9.47787 10.0486
406 2 10.2626 9.75772 8.61781
407 4 9.15628 9.02292 11.3134
408 4 8.28144 9.49985 9.98779
409 4 9.25515 10.5864 10.785
410 12 9.81952 14.8863 9.40709
411 6 8.91806 19.7228 10.3299
412 4 10.0574 15.0985 8.42246
413 4 8.79419 15.005 9.48058
414 4 10.012 13.8765 9.54819
415 10 10.5665 15.7625 10.3971
416 3 10.3803 15.3533 11.3898
417 3 11.6399 15.701 10.1894
418 7 9.72773 17.8062 11.5813
419 6 9.13627 19.074 11.5589
420 8 10.0998 17.1889 10.3782
421 7 9.95799 17.8646 9.1617
422 6 9.35323 19.1308 9.13168
423 1 9.84229 17.2591 12.5182
424 1 8.78458 19.5093 12.4886
425 1 10.2493 17.3794 8.22933
426 1 8.42004 20.6864 10.3066
427 1 9.18982 19.6168 8.17371
428 13 6.70177 12.6221 13.0312
429 5 9.91057 12.5199 12.9945
430 5 6.80397 9.53825 13.1811
431 5 6.80863 12.7729 16.2093
432 5 6.81848 15.6446 13.3063
433 11 10.5056 9.05638 16.7708
434 9 9.67989 9.89623 15.8123
435 2 8.61641 9.75845 16.035
436 2 9.89031 9.59117 14.7815
437 2 9.93527 10.9503 15.9523
438 4 10.3126 8.0437 16.6727
439 4 10.2981 9.30363 17.7583
440 4 11.5242 9.18675 16.6301
441 12 9.85672 14.8929 15.6112
442 6 9.63783 19.9161 15.405
443 4 10.1593 15.0864 14.641
444 4 8.82221 14.934 15.606
445 4 10.1026 13.9074 15.8159
446 10 10.4845 15.858 16.6036
447 3 10.1326 15.6124 17.6096
448 3 11.5646 15.6885 16.5603
449 7 8.86237 17.7133 16.0634
450 6 8.58166 19.0183 15.6279
451 8 10.185 17.3112 16.2848
452 7 11.2344 18.2253 16.1094
453 6 10.9625 19.5259 15.6544
454 1 8.04289 17.0087 16.1986
455 1 7.55221 19.2962 15.4165
456 1 12.2574 17.8851 16.2543
457 1 9.43163 20.9118 15.0277
458 1 11.7807 20.2133 15.4662
459 13 6.91177 12.7265 19.2531
460 5 10.105 12.5656 19.0852
461 5 7.28329 9.65931 19.3143
462 5 6.87106 12.7678 -2.40748
463 5 7.13707 15.799 19.2994
464 11 10.4043 8.97555 -2.84976
465 9 9.51015 9.8525 -1.99067
466 2 9.69634 9.63653 -0.933692
467 2 8.46207 9.65847 -2.23186
468 2 9.74336 10.9011 -2.1922
469 4 10.2929 7.97143 -2.6111
470 4 11.4076 9.20515 -2.72554
471 4 10.1814 9.06741 20.942
472 12 9.80396 15.061 -3.07452
473 6 9.22793 19.9273 -1.49615
474 4 10.0439 15.3908 20.7694
475 4 8.77458 15.1271 -3.00656
476 4 10.0368 14.0518 -3.05646
477 10 10.5299 15.8336 -1.97718
478 3 10.3723 15.3164 -1.02904
479 3 11.5987 15.7885 -2.20309
480 7 8.72045 17.5995 -1.95867
481 6 8.29252 18.9276 -1.78702
482 8 10.0809 17.2684 -1.82525
483 7 11.0178 18.2726 -1.53325
484 6 10.5872 19.5975 -1.36429
485 1 7.98199 16.8248 -2.16629
486 1 7.23271 19.1561 -1.86715
487 1 12.0691 18.0204 -1.42641
488 1 8.90152 20.9523 -1.35384
489 1 11.3078 20.3727 -1.12312
490 13 6.86913 12.8514 0.644546
491 5 9.961 12.629 0.884163
492 5 6.70736 9.71414 0.701998
493 5 6.68438 12.6833 3.86135
494 5 6.82804 15.9156 1.16136
495 11 10.7065 10.1371 3.53157
496 9 9.68919 9.15237 4.10171
497 2 8.67688 9.43969 3.79273
498 2 9.75225 9.17515 5.19471
499 2 9.91428 8.13758 3.7546
500 4 10.5063 11.1138 3.81468
501 4 10.7269 10.128 2.49664
502 4 11.6704 9.93118 3.85331
503 12 9.38824 14.9984 3.72197
504 6 10.0163 19.6809 2.17324
505 4 9.38624 15.0319 2.68789
506 4 8.41417 15.2022 4.01105
507 4 9.5723 14.0175 3.9946
508 10 10.3844 15.9787 4.32996
509 3 10.2414 15.9767 5.41425
510 3 11.3903 15.5981 4.13075
511 7 9.00855 17.9866 3.61463
512 6 8.88017 19.1212 2.79117
513 8 10.2593 17.3747 3.76069
514 7 11.3918 17.9595 3.17476
515 6 11.2786 19.106 2.3775
516 1 8.11256 17.5177 4.02361
517 1 7.88673 19.5031 2.57002
518 1 12.3443 17.4479 3.26863
519 1 9.91005 20.5284 1.50535
520 1 12.158 19.4754 1.85669
521 13 12.8303 0.167902 7.00264
522 5 15.9807 0.239296 6.82187
523 5 13.0962 -2.88481 7.49478
524 5 12.907 0.301007 10.0737
525 12 16.2229 -2.19275 9.51895
526 6 16.31 -7.18821 10.5773
527 4 15.8645 -2.4919 8.59324
528 4 17.2456 -2.32565 9.48928
529 4 16.0679 -1.17065 9.57287
530 10 15.5745 -2.93839 10.6725
531 3 15.9236 -2.50675 11.615
532 3 14.5028 -2.74436 10.5977
533 7 17.1506 -4.90871 10.6029
534 6 17.3913 -6.29248 10.5925
535 8 15.8368 -4.42932 10.6625
536 7 14.7573 -5.32859 10.6894
537 6 14.9857 -6.70823 10.6099
538 1 17.9825 -4.20269 10.5845
539 1 18.4133 -6.65944 10.5695
540 1 13.7463 -4.92641 10.7317
541 1 16.4999 -8.25641 10.5358
542 1 14.1474 -7.39904 10.5938
543 13 12.9652 0.231286 13.0717
544 5 16.039 0.408789 13.3274
545 5 12.5276 -2.7444 13.2379
546 5 12.8258 0.377609 16.2061
547 12 16.5448 -1.98726 16.0162
548 6 16.2559 -7.04815 15.5911
549 4 16.7038 -2.09457 15.0045
550 4 17.457 -2.16711 16.4724
551 4 16.327 -0.987862 16.175
552 10 15.4445 -2.91267 16.5191
553 3 15.4209 -2.79265 17.6044
554 3 14.4839 -2.57758 16.117
555 7 15.6973 -5.31445 17.2113
556 6 15.9741 -6.66074 16.9168
557 8 15.6762 -4.36833 16.1761
558 7 15.9101 -4.76386 14.8489
559 6 16.2355 -6.09613 14.553
560 1 15.5164 -4.98113 18.2354
561 1 15.9881 -7.3947 17.7162
562 1 15.8758 -4.02163 14.0513
563 1 16.4961 -8.08227 15.3663
564 1 16.461 -6.37334 13.5256
565 13 12.9204 0.071115 19.3438
566 5 15.8772 0.365308 18.9903
567 5 12.956 -2.86311 19.7969
568 5 13.2243 0.244817 -2.32627
569 12 16.2639 -2.17924 -2.84436
570 6 16.6193 -7.33984 -2.78598
571 4 15.9222 -2.28349 20.981
572 4 17.2928 -2.25932 -2.89496
573 4 16.0515 -1.20651 -2.55607
574 10 15.6583 -3.2036 -1.89313
575 3 15.9723 -2.94654 -0.870962
576 3 14.5699 -3.06982 -1.93488
577 7 17.3139 -5.12928 -2.04739
578 6 17.624 -6.4706 -2.32536
579 8 16.0067 -4.65009 -2.21456
580 7 15.0064 -5.52838 -2.6557
581 6 15.3045 -6.86851 -2.95044
582 1 18.089 -4.45458 -1.69151
583 1 18.6417 -6.82373 -2.17906
584 1 13.9903 -5.15906 -2.7779
585 1 16.8547 -8.37351 -3.01771
586 1 14.5193 -7.53251 21.4985
587 13 12.9367 0.26299 0.753429
588 5 16.0081 0.443453 0.800238
589 5 12.7383 -2.69422 0.906594
590 5 12.9194 0.205979 3.83873
591 12 16.2549 -1.93028 3.53276
592 6 16.6759 -6.6709 2.26831
593 4 15.7845 -1.91624 2.61134
594 4 17.2639 -2.04859 3.33345
595 4 16.1433 -0.99014 3.95117
596 10 15.7311 -3.05715 4.42251
597 3 16.1455 -2.95207 5.42972
598 3 14.6466 -2.92339 4.50094
599 7 17.4065 -4.83624 3.67452
600 6 17.7162 -5.97236 2.90328
601 8 16.0739 -4.41012 3.81715
602 7 15.036 -5.14912 3.22252
603 6 15.3405 -6.26667 2.43617
604 1 18.2206 -4.23868 4.08611
605 1 18.7576 -6.23364 2.72395
606 1 14.0172 -4.77671 3.28464
607 1 16.9136 -7.49417 1.60275
608 1 14.5472 -6.77234 1.89403
609 13 13.0013 6.33682 6.76719
610 5 16.1028 6.54488 6.75235
611 5 12.9441 3.27592 6.79991
612 5 13.1922 6.48281 9.91662
613 11 16.5889 3.97716 10.5126
614 9 15.709 3.0991 9.62781
615 2 15.942 3.27762 8.57309
616 2 14.6539 3.32808 9.81119
617 2 15.8875 2.04407 9.86459
618 4 16.4154 4.98941 10.3737
619 4 17.6001 3.82259 10.3343
620 4 16.4375 3.78551 11.5201
621 13 13.1974 6.62627 13.0035
622 5 16.2108 6.7025 12.9058
623 5 12.9811 3.4803 13.1048
624 5 13.0928 6.40656 16.1792
625 11 15.3313 3.04416 16.4789
626 9 16.3886 3.8265 15.7226
627 2 16.239 3.70942 14.6463
628 2 17.384 3.45442 15.9953
629 2 16.3048 4.88348 15.9936
630 4 15.3852 2.02508 16.3037
631 4 14.3615 3.32962 16.245
632 4 15.4448 3.16044 17.5006
633 13 13.2458 6.44497 19.3418
634 5 16.2352 6.27594 19.3495
635 5 13.1177 3.32026 19.2918
636 5 13.1604 6.48238 -2.43089
637 11 15.7446 2.92104 -3.00237
638 9 16.502 3.74971 -1.97246
639 2 16.2603 4.80915 -2.1051
640 2 17.5712 3.59474 -2.13157
641 2 16.2383 3.43161 -0.957128
642 4 16.0043 3.16219 20.8207
643 4 14.719 3.04102 -2.91662
644 4 15.9238 1.90617 -2.88916
645 13 13.2051 6.53425 0.559907
646 5 16.291 6.56818 0.826643
647 5 12.9441 3.38694 0.676174
648 5 12.9894 6.37912 3.67331
649 11 15.4799 2.7469 4.2478
650 9 16.3849 3.64779 3.42045
651 2 17.4339 3.40127 3.61824
652 2 16.2048 4.69234 3.69854
653 2 16.1834 3.51141 2.35398
654 4 15.6804 2.83038 5.26173
655 4 15.5962 1.74932 4.00007
656 4 14.4775 2.97407 4.11815
657 13 13.0843 12.7063 6.73787
658 5 16.1313 12.4902 6.98143
659 5 13.0206 9.53552 6.69012
660 5 13.0234 12.5719 9.957
661 5 13.1818 15.6907 7.10446
662 11 15.7003 9.15385 9.27149
663 9 16.5154 9.92503 10.3027
664 2 16.4044 10.9932 10.1035
665 2 17.572 9.64798 10.2243
666 2 16.1412 9.71376 11.3089
667 4 16.0162 9.3431 8.29986
668 4 14.6948 9.40858 9.29278
669 4 15.7537 8.12894 9.40505
670 12 16.1603 14.9825 9.5368
671 6 15.1049 19.773 8.62213
672 4 16.5369 15.0745 8.57577
673 4 15.1318 14.9207 9.4207
674 4 16.469 14.0599 9.89285
675 10 16.5917 16.1483 10.4251
676 3 16.206 15.9749 11.441
677 3 17.6874 16.1363 10.4696
678 7 14.7586 17.8335 10.041
679 6 14.2588 18.9786 9.41303
680 8 16.1075 17.4751 9.8807
681 7 16.9476 18.2587 9.0904
682 6 16.4552 19.4131 8.45451
683 1 14.09 17.1592 10.5692
684 1 13.1954 19.1901 9.48457
685 1 17.9683 17.9384 8.90517
686 1 14.7078 20.6314 8.09064
687 1 17.1063 19.9797 7.79381
688 13 12.9623 12.7904 12.9303
689 5 16.1335 12.7202 13.041
690 5 13.0628 9.564 13.1433
691 5 13.1894 12.5883 16.1104
692 5 13.0285 15.8058 13.3841
693 11 15.9312 10.0543 15.4498
694 9 16.5066 9.11263 16.499
695 2 16.2017 9.43009 17.5016
696 2 17.5977 9.1571 16.4322
697 2 16.1754 8.08687 16.3063
698 4 16.3037 11.013 15.5672
699 4 14.9005 10.1345 15.4979
700 4 16.1688 9.76678 14.4806
701 12 15.9598 15.1266 15.7195
702 6 16.254 20.2411 16.1687
703 4 16.2834 15.3035 14.7497
704 4 14.9359 15.2771 15.7166
705 4 16.1036 14.1128 15.8831
706 10 16.7231 15.9887 16.731
707 3 16.3989 15.7114 17.742
708 3 17.7758 15.7108 16.6365
709 7 15.3025 18.0216 16.4211
710 6 15.1314 19.3956 16.2346
711 8 16.5866 17.4844 16.5341
712 7 17.715 18.3203 16.4889
713 6 17.5492 19.7024 16.2828
714 1 14.433 17.3656 16.4777
715 1 14.1274 19.7951 16.1373
716 1 18.7121 17.886 16.5854
717 1 16.123 21.3067 16.009
718 1 18.4206 20.3458 16.2144
719 13 13.1006 12.7044 19.1777
720 5 16.1651 12.5966 19.2723
721 5 13.1842 9.43156 19.2404
722 5 12.9521 12.558 -2.5436
723 5 13.1202 15.8506 19.459
724 11 15.7488 10.0476 -2.97739
725 9 16.6026 9.16542 -2.08266
726 2 16.3561 9.36861 -1.03574
727 2 17.6598 9.39603 -2.24329
728 2 16.4127 8.11154 -2.31505
729 4 15.8716 11.0516 -2.75263
730 4 14.7378 9.84806 -2.87012
731 4 15.9795 9.92144 20.8177
732 12 15.6776 14.9912 -2.66914
733 6 15.8344 19.9034 20.7396
734 4 15.5723 15.0177 21.1013
735 4 14.7252 15.0902 -2.27739
736 4 16.0079 14.0438 -2.40935
737 10 16.624 16.0794 -2.15966
738 3 16.5388 16.081 -1.06694
739 3 17.647 15.7567 -2.3984
740 7 15.0565 17.9613 -2.82462
741 6 14.7728 19.1342 21.2537
742 8 16.3701 17.4801 -2.70764
743 7 17.4225 18.2492 21.5589
744 6 17.1567 19.462 20.8962
745 1 14.2308 17.3577 -2.45902
746 1 13.7373 19.3999 21.0503
747 1 18.4345 17.8502 21.5859
748 1 15.6194 20.795 20.1582
749 1 17.9743 20.0041 20.4292
750 13 13.0185 12.7687 0.515701
751 5 16.1176 12.5547 0.347641
752 5 12.9565 9.64639 0.467661
753 5 13.1327 12.8018 3.70248
754 5 13.4902 15.776 0.636343
755 11 16.8679 9.08653 4.02691
756 9 15.7847 9.8729 3.30831
757 2 15.9275 9.7526 2.23161
758 2 15.8749 10.9292 3.56983
759 2 14.7941 9.50465 3.5973
760 4 17.8218 9.42005 3.78738
761 4 16.8277 8.08264 3.7707
762 4 16.7847 9.13723 5.05733
763 12 16.1008 14.9962 3.07542
764 6 15.8969 19.9959 3.99937
765 4 16.4495 15.2343 2.12734
766 4 15.0804 15.152 3.06486
767 4 16.2262 13.9728 3.18981
768 10 16.7837 15.7816 4.18025
769 3 16.5061 15.3406 5.14322
770 3 17.8582 15.6401 4.0331
771 7 15.1379 17.6945 4.1663
772 6 14.8512 19.0643 4.08794
773 8 16.4665 17.2558 4.18743
774 7 17.511 18.1918 4.14114
775 6 17.2369 19.5635 4.02035
776 1 14.334 16.9611 4.18373
777 1 13.8138 19.3828 4.07708
778 1 18.5404 17.8371 4.14514
779 1 15.6736 21.0556 3.92849
780 1 18.0537 20.2767 3.94351
781 13 19.0539 0.139047 6.95209
782 5 -2.71211 0.328911 6.78
783 5 19.0233 -2.89954 7.17742
784 5 18.9711 0.204499 10.0261
785 12 -2.25453 -2.04974 9.66425
786 6 -2.17655 -7.04472 8.95683
787 4 -2.36606 -2.1771 8.64067
788 4 -1.23697 -2.1 9.85068
789 4 -2.54409 -1.0784 9.88411
790 10 -3.03077 -3.08893 10.4725
791 3 -2.80421 -2.93339 11.5341
792 3 20.7017 -2.87462 10.3379
793 7 -1.411 -4.94764 9.90529
794 6 -1.12062 -6.20427 9.35178
795 8 -2.73275 -4.51741 10.0591
796 7 21.0176 -5.3764 9.71207
797 6 21.2987 -6.63202 9.15089
798 1 -0.589291 -4.28051 10.1519
799 1 -0.0842845 -6.49248 9.18797
800 1 19.9972 -5.00884 9.78069
801 1 -1.95741 -7.9983 8.48738
802 1 20.4778 -7.25736 8.81619
803 13 19.1354 0.265556 13.0169
804 5 -2.61149 0.369793 12.8115
805 5 19.1252 -2.77364 13.4813
806 5 19.4151 0.501674 16.1813
807 12 -2.37058 -2.01127 15.564
808 6 -2.606 -7.07589 16.4239
809 4 -2.81136 -2.29415 14.6695
810 4 -1.35321 -2.14286 15.46
811 4 -2.51614 -0.989762 15.6581
812 10 -2.90961 -2.76964 16.7662
813 3 -2.40255 -2.41257 17.6703
814 3 20.8391 -2.49569 16.8419
815 7 -1.53156 -4.91109 16.6882
816 6 -1.4373 -6.3051 16.5541
817 8 -2.78381 -4.27491 16.6477
818 7 20.8548 -5.04726 16.5331
819 6 20.9373 -6.44823 16.4426
820 1 -0.641122 -4.29977 16.8236
821 1 -0.459648 -6.77821 16.5621
822 1 19.8837 -4.55135 16.503
823 1 -2.53859 -8.15366 16.3189
824 1 20.0248 -7.03006 16.3459
825 13 19.0872 0.214227 19.2898
826 5 -2.5631 0.420971 19.5484
827 5 18.6281 -2.78493 19.2164
828 5 18.7896 0.319907 -2.45385
829 12 -1.76418 -1.90007 -2.42444
830 6 -2.48828 -6.35386 20.4764
831 4 -1.78002 -1.87813 21.3413
832 4 -0.798643 -2.16584 -2.15909
833 4 -1.88154 -0.924139 -2.10513
834 10 -2.82274 -2.8464 -1.86232
835 3 -2.70553 -2.90309 -0.775466
836 3 20.9919 -2.40506 -2.05922
837 7 -1.48338 -4.83768 -2.71084
838 6 -1.36215 -5.92108 21.2001
839 8 -2.72719 -4.21856 -2.49667
840 7 20.9409 -4.74799 21.6943
841 6 21.06 -5.77635 20.7434
842 1 -0.593277 -4.39655 -2.2724
843 1 -0.371807 -6.29922 20.9605
844 1 19.988 -4.25219 -2.95737
845 1 -2.38322 -7.09417 19.6896
846 1 20.1844 -6.04678 20.1572
847 13 19.1214 0.332838 0.750082
848 5 -2.59229 0.417175 0.514435
849 5 19.1345 -2.58341 0.887014
850 5 19.1519 0.263619 3.86642
851 12 -2.42511 -1.91561 3.28643
852 6 -1.99907 -7.08155 3.55619
853 4 -2.73382 -2.04309 2.30676
854 4 -1.39192 -1.98033 3.27819
855 4 -2.65512 -0.938503 3.54689
856 10 -3.07178 -2.92803 4.2241
857 3 -2.78837 -2.6738 5.2519
858 3 20.6424 -2.80787 4.15223
859 7 -2.37129 -5.19036 5.04374
860 6 -2.01986 -6.54044 4.85172
861 8 -2.69049 -4.37174 3.95275
862 7 -2.63806 -4.90658 2.65693
863 6 -2.28127 -6.25505 2.45112
864 1 -2.38639 -4.76875 6.0512
865 1 -1.7634 -7.14605 5.71601
866 1 -2.83688 -4.27507 1.79324
867 1 -1.72785 -8.12085 3.39967
868 1 -2.21018 -6.63785 1.43562
869 13 19.2528 6.38463 6.94986
870 5 -2.41938 6.307 7.06736
871 5 18.9778 3.29202 6.83561
872 5 19.3242 6.55475 9.96472
873 11 -1.97718 3.86332 10.4325
874 9 -2.91909 2.9999 9.61184
875 2 -2.74969 3.20574 8.5524
876 2 20.8436 3.23458 9.86589
877 2 -2.71833 1.94485 9.80912
878 4 -2.11155 4.87458 10.2476
879 4 -0.98067 3.65422 10.2286
880 4 -2.11836 3.71699 11.4494
881 13 19.2757 6.61777 13.0604
882 5 -2.40111 6.44625 13.0862
883 5 19.2949 3.50093 12.9439
884 5 19.3643 6.31461 16.0827
885 11 -2.99236 3.17275 15.4644
886 9 -2.09437 3.76099 16.5429
887 2 -2.33997 3.31801 17.5169
888 2 -2.25995 4.84024 16.5847
889 2 -1.04788 3.55191 16.3028
890 4 20.8008 3.33152 15.6659
891 4 -2.86412 2.15146 15.3672
892 4 -2.80928 3.58501 14.5321
893 13 19.1831 6.36354 19.2632
894 5 -2.42521 6.32671 19.6878
895 5 19.1947 3.34105 19.348
896 5 19.3506 6.37966 -2.38064
897 11 21.6241 3.12409 -2.69129
898 9 -2.05238 3.77278 -1.89718
899 2 -2.20538 3.58583 -0.831068
900 2 -2.06018 4.84907 -2.0806
901 2 -1.0844 3.37239 -2.2171
902 4 20.692 3.4999 -2.43473
903 4 21.5775 2.09981 -2.54907
904 4 -3.0613 3.28374 21.0875
905 13 19.4215 6.49867 0.720182
906 5 -2.25737 6.78464 0.657376
907 5 19.4566 3.43619 0.725294
908 5 19.2934 6.39361 3.92286
909 11 21.6583 3.06721 4.38523
910 9 -2.1626 3.87527 3.54394
911 2 -1.13516 3.65921 3.8559
912 2 -2.35118 4.94474 3.67824
913 2 -2.28755 3.61778 2.48604
914 4 -3.00865 3.22819 5.40163
915 4 -3.04368 2.04725 4.23363
916 4 20.6682 3.2988 4.17302
917 13 19.2396 12.4714 6.89978
918 5 -2.47858 12.5813 6.61654
919 5 19.1684 9.4448 6.98293
920 5 19.3081 12.7861 9.96572
921 5 19.4848 15.6887 6.90531
922 11 -1.89252 9.07769 10.563
923 9 -2.84561 9.82113 9.64498
924 2 -2.698 9.48036 8.61597
925 2 -2.63708 10.8929 9.70132
926 2 20.9228 9.62903 9.9577
927 4 -0.899261 9.25564 10.3257
928 4 -2.02741 8.05281 10.51
929 4 -2.02309 9.34478 11.556
930 12 -2.62837 14.9256 9.28641
931 6 -2.92601 19.9409 10.3066
932 4 -2.27893 15.2236 8.35778
933 4 21.145 14.9979 9.23754
934 4 -2.4104 13.918 9.37658
935 10 -2.05276 15.7415 10.4244
936 3 -2.41319 15.3334 11.3767
937 3 -0.971929 15.5984 10.3801
938 7 21.1053 17.6407 10.2871
939 6 20.823 19.0101 10.2533
940 8 -2.35771 17.2125 10.3439
941 7 -1.30514 18.1337 10.3392
942 6 -1.59085 19.5076 10.3264
943 1 20.2973 16.9074 10.2802
944 1 19.7895 19.3424 10.2339
945 1 -0.275197 17.7796 10.3682
946 1 21.6506 21.0022 10.3011
947 1 -0.777239 20.2268 10.349
948 13 19.1533 12.6482 13.0407
949 5 -2.49041 12.4748 13.277
950 5 19.2501 9.51235 13.2081
951 5 19.0814 12.4979 16.173
952 5 19.2587 15.7509 13.4601
953 11 -1.73438 9.92084 15.9896
954 9 -2.7338 9.02526 16.7143
955 2 -2.5494 7.98319 16.4352
956 2 21.0446 9.32153 16.4448
957 2 -2.59996 9.14068 17.793
958 4 -1.83872 9.87843 14.9593
959 4 -0.755411 9.65523 16.2076
960 4 -1.83346 10.916 16.2596
961 12 -2.9867 14.9047 16.0354
962 6 -2.2778 19.9488 15.5522
963 4 -2.98238 14.9768 15.0037
964 4 20.8459 15.1402 16.327
965 4 -2.8559 13.9056 16.2736
966 10 -1.95298 15.7997 16.708
967 3 -2.09009 15.6946 17.7851
968 3 -0.955424 15.4153 16.4698
969 7 -2.09467 18.2534 17.2869
970 6 -2.20408 19.6069 16.915
971 8 -2.06304 17.2531 16.3059
972 7 -2.1415 17.5973 14.9488
973 6 -2.24427 18.9422 14.5708
974 1 -2.03893 17.9658 18.3373
975 1 -2.25025 20.3737 17.6836
976 1 -2.13139 16.8201 14.1829