ITEM: TIMESTEP
110000
ITEM: NUMBER OF ATOMS
1040
ITEM: BOX BOUNDS pp pp pp
-3.1208171627654866e+00 2.1720817162765879e+01
-6.9095259441535461e+01 8.1495259441535467e+01
-3.1251399232191290e+00 2.1725139923218343e+01
ITEM: ATOMS id type x y z
1 13 0.745984 0.117496 8.61388
2 5 3.9029 0.166642 8.92565
3 5 0.765014 -2.87733 8.24466
4 5 0.760421 0.00160788 11.7354
5 12 4.66305 -2.19494 11.9158
6 6 4.9619 -7.16625 10.8993
7 4 4.77887 -2.04455 10.8598
8 4 5.51858 -2.51687 12.2149
9 4 4.57626 -1.27331 12.3475
10 10 3.61583 -3.26622 12.2749
11 3 3.53322 -3.34286 13.4349
12 3 2.5493 -2.98965 11.9651
13 7 3.85752 -5.07671 10.3328
14 6 4.35895 -6.36275 9.98319
15 8 3.9985 -4.61429 11.7189
16 7 4.6628 -5.48396 12.6208
17 6 5.09891 -6.75444 12.2218
18 1 3.25627 -4.57069 9.64015
19 1 4.21525 -6.74443 8.97019
20 1 4.75492 -5.37702 13.7083
21 1 5.27523 -8.13086 10.6237
22 1 5.51259 -7.42968 12.9726
23 13 0.744633 0.0647598 14.7125
24 5 3.91501 0.341889 14.8211
25 5 0.392368 -2.8765 14.7251
26 5 0.577562 0.23992 17.6598
27 12 4.068 -1.86312 18.3781
28 6 4.47134 -6.93444 17.5749
29 4 3.87583 -0.894609 18.2061
30 4 5.02813 -2.00985 18.0456
31 4 4.02098 -2.01959 19.3397
32 10 3.07183 -2.78303 17.6252
33 3 1.97772 -2.70033 17.932
34 3 3.13046 -2.44016 16.6063
35 7 4.06862 -4.85437 18.8137
36 6 4.47744 -6.20763 18.793
37 8 3.60573 -4.22023 17.6575
38 7 3.56253 -5.00287 16.4948
39 6 3.82928 -6.39329 16.4441
40 1 4.09244 -4.27514 19.7717
41 1 4.74148 -6.59032 19.7399
42 1 3.19163 -4.52711 15.5949
43 1 4.77212 -7.94833 17.4836
44 1 3.79132 -6.87043 15.4917
45 13 0.653267 0.181502 21.3375
46 5 3.88398 0.391993 21.1593
47 5 1.45699 -2.81373 21.2567
48 5 0.716275 0.311087 -0.354317
49 12 4.22938 -2.17609 -1.17891
50 6 4.8451 -7.25309 -0.334649
51 4 3.93203 -2.35191 -2.14033
52 4 5.27242 -2.24839 -1.07964
53 4 4.04489 -1.14997 -0.941463
54 10 3.57313 -3.11554 -0.113979
55 3 3.83607 -2.69522 0.860423
56 3 2.5547 -2.94099 -0.337544
57 7 4.31388 -5.16982 -1.53288
58 6 4.58879 -6.55128 -1.51029
59 8 4.0511 -4.57554 -0.270522
60 7 4.19286 -5.36045 0.883274
61 6 4.69866 -6.64427 0.899109
62 1 4.19715 -4.58431 -2.44712
63 1 4.72557 -7.10403 -2.49527
64 1 4.08755 -4.86742 1.82636
65 1 5.15354 -8.20709 -0.504152
66 1 4.995 -7.15853 1.82494
67 13 0.859924 0.472119 2.54912
68 5 3.75798 0.512222 2.77291
69 5 0.830103 -2.74994 2.71097
70 5 0.829129 0.468693 5.66163
71 12 3.77076 -2.17221 5.30693
72 6 4.53097 -7.27711 5.51537
73 4 2.8382 -2.58209 5.0442
74 4 4.20306 -2.07999 4.39293
75 4 3.50461 -1.27215 5.71348
76 10 4.45204 -3.06411 6.26181
77 3 5.50791 -2.76923 6.33268
78 3 4.00552 -2.86933 7.26427
79 7 3.4249 -5.13758 5.37669
80 6 3.38113 -6.52477 5.26618
81 8 4.54077 -4.56618 5.93918
82 7 5.61413 -5.34397 6.37075
83 6 5.6483 -6.73654 6.09285
84 1 2.62614 -4.45006 5.22234
85 1 2.4211 -7.00125 4.9896
86 1 6.46705 -4.90915 6.70652
87 1 4.41092 -8.33399 5.44245
88 1 6.45148 -7.4035 6.44902
89 13 0.744612 6.4906 8.80739
90 5 3.65559 6.86234 8.64933
91 5 0.793231 3.35537 9.01073
92 5 0.910026 6.53237 11.9036
93 11 3.18618 2.74054 11.709
94 9 4.26109 3.83117 12.0031
95 2 4.08289 4.01724 13.007
96 2 4.2797 4.6581 11.3102
97 2 5.20321 3.36449 11.9629
98 4 3.41783 1.81915 12.1112
99 4 3.05786 2.60693 10.6805
100 4 2.25598 2.94647 11.9935
101 13 0.814403 6.63105 14.9794
102 5 4.19641 6.72068 15.1599
103 5 0.670947 3.36562 14.811
104 5 1.06825 6.4267 18.0233
105 11 4.26584 3.77665 18.7106
106 9 3.35579 3.00402 17.739
107 2 3.61402 1.96862 17.8113
108 2 3.64916 3.31279 16.7326
109 2 2.28288 3.19338 17.8645
110 4 4.01676 3.41627 19.6586
111 4 4.23001 4.76302 18.635
112 4 5.24156 3.43852 18.558
113 13 0.761886 6.59196 21.135
114 5 3.99953 6.50432 21.0983
115 5 1.03958 3.33533 21.1848
116 5 1.0263 6.72402 -0.61352
117 11 3.67966 2.91344 -1.05616
118 9 4.43182 4.03802 -0.316618
119 2 4.16616 3.97598 0.746565
120 2 4.22227 4.9871 -0.715862
121 2 5.54102 3.83977 -0.464356
122 4 3.91583 3.08946 -2.04742
123 4 2.64939 2.91154 -0.941025
124 4 3.94462 1.92868 -0.974704
125 13 0.724551 6.57122 2.55352
126 5 3.88968 6.85618 2.78013
127 5 0.98682 3.54391 2.37311
128 5 0.804757 6.39526 5.64464
129 11 3.50876 3.79862 4.92693
130 9 4.06739 3.02081 6.09836
131 2 3.9434 1.96187 5.9913
132 2 3.52246 3.34171 7.00662
133 2 5.0942 3.29182 6.15627
134 4 3.46139 4.84931 5.08238
135 4 2.52469 3.4212 4.79073
136 4 3.97866 3.6429 4.0287
137 13 0.976895 12.8754 8.69796
138 5 3.86429 12.5339 8.99134
139 5 0.636596 9.76582 8.8518
140 5 1.01431 12.706 11.932
141 5 1.03651 15.8221 8.29447
142 11 3.26092 9.36131 11.336
143 9 4.36058 10.0059 12.2535
144 2 4.00695 9.83995 13.3499
145 2 4.3551 11.0929 12.0872
146 2 5.39092 9.5407 12.2098
147 4 2.2636 9.67635 11.4985
148 4 3.23898 8.33217 11.3489
149 4 3.52845 9.55989 10.3254
150 12 4.27049 15.0621 11.6435
151 6 3.98219 19.789 10.0486
152 4 3.9981 14.1271 11.7843
153 4 5.30755 15.1663 11.7875
154 4 4.21491 15.2857 10.6783
155 10 3.54993 16.1644 12.4001
156 3 2.49908 15.9683 12.2371
157 3 3.76416 16.059 13.418
158 7 2.59071 18.1628 11.2765
159 6 2.71205 19.2744 10.338
160 8 3.73505 17.4973 11.7487
161 7 4.96415 18.0562 11.6131
162 6 5.13561 19.2034 10.7518
163 1 1.58777 17.7094 11.5473
164 1 1.85041 19.59 9.74881
165 1 5.772 17.6047 12.1293
166 1 4.03226 20.6624 9.40737
167 1 6.12839 19.4211 10.4045
168 13 0.910326 12.6859 15.0424
169 5 4.04929 12.9515 14.9502
170 5 0.798429 9.58687 15.138
171 5 0.999797 13.026 18.2408
172 5 0.185537 15.8242 14.9724
173 11 4.29169 9.08303 18.6217
174 9 3.76008 10.1151 17.6918
175 2 2.70367 10.3105 17.8898
176 2 3.95128 9.99344 16.6451
177 2 4.2041 10.9989 18.1188
178 4 3.67359 8.32828 18.6208
179 4 4.3124 9.41685 19.6237
180 4 5.23385 8.77626 18.4239
181 12 3.99763 15.0835 18.091
182 6 4.1481 19.6478 19.7281
183 4 4.91168 15.1127 18.5149
184 4 3.93398 14.1649 17.5432
185 4 3.28411 14.9903 18.8913
186 10 3.61991 16.3057 17.3184
187 3 4.16257 16.3454 16.3218
188 3 2.56498 16.1216 17.1296
189 7 5.05618 17.9558 18.3459
190 6 5.27939 19.0361 19.2039
191 8 3.75244 17.5187 18.0697
192 7 2.62566 18.0773 18.6749
193 6 2.83958 19.1966 19.4901
194 1 5.86575 17.3731 17.9726
195 1 6.32912 19.255 19.4524
196 1 1.67559 17.6681 18.548
197 1 4.27346 20.3236 20.4783
198 1 2.02996 19.5762 20.117
199 13 0.882301 12.8169 21.1196
200 5 3.89851 13.0506 21.1552
201 5 1.29304 9.66305 21.0029
202 5 0.780171 12.4627 -0.459677
203 5 0.762999 15.7812 21.5303
204 11 3.28336 9.37471 0.0284584
205 9 4.2232 9.95974 -0.878503
206 2 4.20004 9.2919 -1.76735
207 2 5.23602 9.81173 -0.393153
208 2 4.01365 10.9803 -1.10046
209 4 3.409 8.34141 -0.086195
210 4 2.29391 9.58542 -0.286735
211 4 3.46328 9.62755 1.03559
212 12 3.53225 14.9373 -0.40033
213 6 3.59209 20.019 0.473711
214 4 2.56664 14.9979 -0.633661
215 4 3.59964 14.935 0.636017
216 4 3.84533 14.0463 -0.759195
217 10 4.35378 16.0765 -0.977562
218 3 5.36539 15.8303 -0.703219
219 3 4.17683 16.1331 -2.11497
220 7 2.77093 17.828 -0.136179
221 6 2.47693 19.1335 0.32535
222 8 4.05343 17.4507 -0.471102
223 7 5.14895 18.3579 -0.260357
224 6 4.87946 19.6228 0.301545
225 1 1.92742 17.2007 -0.279314
226 1 1.48924 19.5041 0.472303
227 1 6.21657 18.0937 -0.476263
228 1 3.41673 20.9969 0.832541
229 1 5.69679 20.281 0.583407
230 13 0.965183 12.5677 2.63423
231 5 3.99101 12.7311 2.44609
232 5 0.955814 9.57671 2.57296
233 5 1.1382 12.736 5.58196
234 5 0.71457 15.7211 2.53109
235 11 3.22325 9.22405 5.82996
236 9 4.32496 10.1099 5.31832
237 2 5.2567 9.74879 5.67387
238 2 4.0901 11.1238 5.6462
239 2 4.40065 10.0293 4.23066
240 4 2.37068 9.38635 5.35909
241 4 3.06548 9.34694 6.89875
242 4 3.45911 8.20857 5.6117
243 12 4.27066 15.3072 6.065
244 6 5.43762 20.1192 5.27679
245 4 4.06523 15.5408 6.99851
246 4 5.31106 15.3487 5.92906
247 4 3.93143 14.2945 5.9266
248 10 3.58878 16.281 5.0844
249 3 3.76403 15.8362 4.10619
250 3 2.48255 16.049 5.3475
251 7 4.51082 18.3492 4.04132
252 6 5.24078 19.4895 4.06501
253 8 4.1023 17.6948 5.1667
254 7 4.26952 18.3244 6.42484
255 6 4.93704 19.586 6.47031
256 1 4.46002 17.7708 3.11295
257 1 5.80714 19.815 3.18889
258 1 3.92587 17.7511 7.3487
259 1 6.008 21.0189 5.37415
260 1 4.99497 20.0595 7.42799
261 13 7.05321 0.363404 8.96192
262 5 10.0309 0.572174 8.83357
263 5 7.08619 -2.74679 9.17323
264 5 7.02493 0.423019 12.1352
265 12 10.2679 -2.09421 11.4524
266 6 10.6262 -7.38315 11.3981
267 4 11.1933 -2.18069 11.0142
268 4 10.3299 -1.1587 11.9488
269 4 9.62732 -2.0402 10.69
270 10 9.97673 -3.11185 12.5124
271 3 10.6912 -2.94553 13.3182
272 3 8.98308 -2.86318 12.8595
273 7 11.484 -5.05923 11.8052
274 6 11.7074 -6.45356 11.4526
275 8 10.158 -4.57971 12.0742
276 7 9.13541 -5.45674 11.9537
277 6 9.36759 -6.83386 11.6498
278 1 12.3377 -4.30196 11.8222
279 1 12.7535 -6.82682 11.2718
280 1 8.16493 -5.10438 12.1894
281 1 10.774 -8.47193 11.2079
282 1 8.50615 -7.39615 11.6169
283 13 6.85172 0.452674 15.0814
284 5 9.98403 0.121165 15.15
285 5 6.74271 -2.7843 15.3099
286 5 6.71968 0.708673 18.0025
287 12 9.38318 -2.05224 18.0353
288 6 10.3446 -7.10603 18.0132
289 4 8.47225 -2.44596 18.2472
290 4 9.55867 -2.24198 17.0199
291 4 9.36981 -1.01751 18.1242
292 10 10.4081 -2.74797 18.8862
293 3 11.4597 -2.37677 18.61
294 3 10.2342 -2.62262 19.9423
295 7 9.16836 -4.97944 18.3824
296 6 9.15166 -6.39027 18.1029
297 8 10.3844 -4.27225 18.5762
298 7 11.553 -4.99002 18.4319
299 6 11.5291 -6.36207 18.2384
300 1 8.22594 -4.39191 18.3082
301 1 8.15451 -6.79052 17.8131
302 1 12.5408 -4.49717 18.4557
303 1 10.3584 -8.13351 17.7873
304 1 12.5246 -6.88827 18.0099
305 13 7.02952 0.575036 21.0964
306 5 9.92333 0.471948 21.3986
307 5 6.81596 -2.53996 21.0506
308 5 6.51058 0.523654 -0.635515
309 12 9.46975 -1.8379 -0.23517
310 6 8.52744 -6.36932 -1.85155
311 4 9.08661 -1.77753 -1.22002
312 4 10.0377 -1.0041 -0.125424
313 4 8.65376 -1.76719 0.384127
314 10 10.2738 -3.06997 0.153529
315 3 11.3707 -3.06809 -0.0400536
316 3 10.1695 -3.05584 1.26381
317 7 9.04242 -5.19783 0.20415
318 6 8.42973 -6.28852 -0.495714
319 8 9.6513 -4.19171 -0.540015
320 7 9.67589 -4.24716 -1.96236
321 6 9.10907 -5.32307 -2.59088
322 1 8.94157 -5.0889 1.29493
323 1 7.74044 -7.0415 -0.0323041
324 1 9.93068 -3.3884 -2.53749
325 1 8.10937 -7.25825 -2.35393
326 1 8.85264 -5.19839 21.2516
327 13 6.77047 0.433615 2.48213
328 5 9.80746 0.275879 2.77762
329 5 6.85358 -2.52422 2.64037
330 5 7.00471 0.30704 5.91342
331 12 10.2818 -2.30997 6.09411
332 6 10.4131 -7.46899 6.45252
333 4 9.90406 -1.37766 5.8723
334 4 11.2528 -2.23739 5.75166
335 4 10.3268 -2.43892 7.09132
336 10 9.35374 -3.36351 5.48643
337 3 8.2664 -3.12292 5.71828
338 3 9.41096 -3.21782 4.38251
339 7 10.056 -5.17665 7.1306
340 6 10.3625 -6.49143 7.50559
341 8 9.69909 -4.75209 5.83371
342 7 9.67415 -5.76516 4.8583
343 6 10.0137 -7.13181 5.13998
344 1 10.0994 -4.43869 7.92909
345 1 10.6661 -6.71844 8.56386
346 1 9.53706 -5.41789 3.81508
347 1 10.8152 -8.45287 6.63343
348 1 10.1564 -7.80557 4.26909
349 13 6.93541 6.48694 8.76946
350 5 9.96807 6.60933 9.14133
351 5 6.80323 3.48412 8.98957
352 5 6.9692 6.62978 11.8539
353 11 9.41896 3.31119 11.3593
354 9 10.5292 3.91254 12.2381
355 2 10.2271 3.76814 13.2971
356 2 10.5588 4.95904 12.0863
357 2 11.4686 3.52365 12.1366
358 4 9.34882 3.64943 10.3281
359 4 8.55391 3.50041 11.8153
360 4 9.64797 2.32972 11.3209
361 13 7.06275 6.63881 15.2104
362 5 10.1762 6.74455 15.3403
363 5 7.29461 3.51282 14.9458
364 5 7.10563 6.52623 18.3214
365 11 9.74346 3.23605 17.5715
366 9 10.4402 3.89805 18.7436
367 2 11.5359 3.82713 18.5451
368 2 10.0197 3.46009 19.6792
369 2 10.2279 4.97683 18.7212
370 4 10.0168 3.76255 16.7189
371 4 8.72019 3.11233 17.7634
372 4 10.1205 2.30838 17.4184
373 13 7.2746 6.55959 21.4143
374 5 10.2859 6.46424 -3.06428
375 5 6.95812 3.50458 21.3749
376 5 6.95616 6.81425 -0.279599
377 11 10.8433 4.00871 0.0150414
378 9 9.7919 3.11775 -0.748421
379 2 10.015 2.10669 -0.389754
380 2 9.86003 3.21727 -1.80969
381 2 8.76857 3.48013 -0.488059
382 4 11.8011 3.6564 0.142695
383 4 10.629 4.02747 1.04919
384 4 10.8062 5.05955 -0.303071
385 13 7.04972 6.65473 2.80015
386 5 10.1607 6.49091 2.89716
387 5 6.89819 3.53464 2.76634
388 5 6.9713 6.76959 5.87792
389 11 9.49194 3.12432 5.13138
390 9 10.3323 3.85633 6.14048
391 2 9.98622 3.60236 7.17546
392 2 10.3219 4.88897 5.88943
393 2 11.4108 3.47014 5.9965
394 4 8.48155 3.40486 5.26023
395 4 9.52831 2.08627 5.23328
396 4 9.69961 3.42421 4.09964
397 13 7.06746 12.8626 9.07781
398 5 10.2293 12.677 9.06133
399 5 6.75769 9.80863 9.16335
400 5 7.35314 12.7365 12.1131
401 5 6.75765 15.8122 8.7882
402 11 9.58777 9.56407 11.3812
403 9 10.4268 9.99077 12.5081
404 2 10.4875 11.083 12.4175
405 2 11.4186 9.60959 12.4195
406 2 9.94675 9.84675 13.4819
407 4 9.08972 8.62929 11.4255
408 4 10.0404 9.6575 10.4512
409 4 8.91058 10.2812 11.3763
410 12 10.4476 15.424 12.5166
411 6 10.8019 20.3295 11.4557
412 4 10.1919 14.416 12.5521
413 4 10.3042 15.7647 13.4762
414 4 11.451 15.6026 12.4103
415 10 9.50553 16.2002 11.5496
416 3 9.61515 15.7903 10.5544
417 3 8.44745 15.9319 11.9198
418 7 10.1009 18.3892 12.7679
419 6 10.5829 19.7004 12.6773
420 8 9.84537 17.6327 11.6277
421 7 10.0922 18.2361 10.3727
422 6 10.6249 19.542 10.309
423 1 9.73501 18.1385 13.7589
424 1 10.777 20.1573 13.6771
425 1 10.0839 17.5021 9.53563
426 1 11.3697 21.3213 11.4273
427 1 10.856 19.8455 9.26868
428 13 7.23335 13.0803 15.3093
429 5 10.2772 12.7789 15.496
430 5 7.21933 9.78516 15.4333
431 5 7.10078 13.2211 18.2112
432 5 7.23796 16.0436 14.8845
433 11 10.9584 10.0716 17.8959
434 9 9.95438 9.46635 18.8982
435 2 10.1804 8.46277 18.9352
436 2 8.94383 9.63331 18.5642
437 2 10.0431 9.9138 19.8803
438 4 11.8764 9.69384 18.061
439 4 10.9784 11.0851 18.0148
440 4 10.6522 9.88492 16.9093
441 12 10.1663 15.2883 18.2638
442 6 9.20961 20.1723 18.731
443 4 10.589 14.3434 18.3516
444 4 9.99571 15.4694 17.2627
445 4 9.32066 15.2236 18.9279
446 10 11.1464 16.3732 18.8645
447 3 11.2195 16.0807 19.8684
448 3 12.2188 16.3034 18.4337
449 7 9.94502 18.1749 17.5091
450 6 9.19122 19.3798 17.6104
451 8 10.648 17.6757 18.6499
452 7 10.6772 18.537 19.7684
453 6 9.92331 19.6707 19.8299
454 1 9.85403 17.6211 16.6234
455 1 8.55708 19.5664 16.767
456 1 11.0338 18.1051 20.7624
457 1 8.61317 21.0652 18.7648
458 1 9.96799 20.1391 20.7998
459 13 6.93533 13.0311 21.2588
460 5 10.3299 12.8123 21.4285
461 5 6.92752 9.73784 21.2082
462 5 7.05608 12.7631 -0.692133
463 5 7.46974 16.0341 21.3211
464 11 9.63158 10.0563 -0.995516
465 9 10.5038 9.34701 0.0481915
466 2 10.2349 8.27194 0.0259854
467 2 10.293 9.74934 1.00758
468 2 11.5574 9.58563 -0.113451
469 4 9.90703 9.97102 -2.01636
470 4 9.70351 11.1235 -0.822314
471 4 8.58903 9.82573 -0.855062
472 12 10.0298 15.1123 -0.762882
473 6 10.051 20.16 -1.24103
474 4 10.4251 15.1203 -1.75115
475 4 9.04593 15.3851 -0.923038
476 4 10.0134 14.1894 -0.30918
477 10 10.8668 16.175 -0.0565482
478 3 10.6749 16.0429 1.05853
479 3 11.9548 15.9795 -0.119215
480 7 9.27302 18.0201 -0.498529
481 6 8.97622 19.3407 -0.888922
482 8 10.5418 17.5864 -0.389204
483 7 11.599 18.4284 -0.692906
484 6 11.3499 19.6967 -1.12725
485 1 8.45887 17.3289 -0.323131
486 1 7.96892 19.6485 -1.11098
487 1 12.597 17.9737 -0.649577
488 1 9.75919 21.0583 -1.63993
489 1 12.2089 20.2999 -1.36627
490 13 7.12808 12.9316 2.55953
491 5 10.2536 13.022 2.55509
492 5 7.27712 9.92434 2.56917
493 5 7.16121 12.9038 5.65218
494 5 7.14077 15.849 2.39513
495 11 9.78442 10.1732 5.02174
496 9 10.5975 9.52625 6.11941
497 2 10.038 9.71127 7.02907
498 2 11.5657 9.98233 6.19692
499 2 10.6668 8.44634 5.83385
500 4 8.83455 9.76702 5.08453
501 4 10.2905 10.0502 4.1323
502 4 9.52651 11.174 5.04216
503 12 10.0005 15.1039 6.4822
504 6 10.4508 20.1099 6.66129
505 4 10.7545 15.2525 7.2154
506 4 9.99416 14.0884 6.28973
507 4 9.13279 15.3152 7.02527
508 10 10.2955 15.9964 5.31574
509 3 11.2434 15.6174 4.93169
510 3 9.53664 15.9271 4.5152
511 7 9.25226 18.2756 5.58949
512 6 9.22626 19.6084 6.17944
513 8 10.4084 17.4719 5.62289
514 7 11.6074 18.0417 6.05654
515 6 11.634 19.2942 6.69364
516 1 8.36408 17.8302 5.15861
517 1 8.32208 20.1953 6.23688
518 1 12.4729 17.4331 5.99534
519 1 10.4234 21.1305 7.08897
520 1 12.5609 19.7068 7.14919
521 13 13.2262 0.556987 8.91882
522 5 16.0925 0.406137 8.8601
523 5 13.1296 -2.63598 8.37961
524 5 12.9739 0.292018 11.9952
525 12 16.3956 -2.06679 12.2637
526 6 16.8934 -6.99701 12.2851
527 4 17.3821 -1.99743 11.9772
528 4 16.4213 -2.3547 13.2691
529 4 16.1288 -1.0348 12.2442
530 10 15.52 -3.01243 11.5082
531 3 14.5227 -2.87742 11.7791
532 3 15.6262 -2.70171 10.4513
533 7 16.1387 -4.81814 13.1373
534 6 16.7302 -6.13658 13.2932
535 8 15.933 -4.42398 11.8082
536 7 15.8619 -5.44018 10.7824
537 6 16.3071 -6.73466 11.037
538 1 16.1873 -4.08088 13.9529
539 1 16.9583 -6.40048 14.365
540 1 15.5438 -5.07149 9.77136
541 1 17.393 -7.91927 12.4811
542 1 16.2711 -7.48045 10.183
543 13 12.9356 -0.0128944 15.032
544 5 16.046 0.1339 15.1319
545 5 13.2097 -3.00694 15.5099
546 5 12.8331 0.673264 18.2885
547 12 15.7123 -1.76979 18.7199
548 6 15.341 -6.81751 18.6785
549 4 14.7935 -1.87081 18.1985
550 4 16.0823 -0.831439 18.5931
551 4 15.5782 -1.8614 19.6945
552 10 16.7108 -2.79201 18.1249
553 3 16.7937 -2.71822 17.0341
554 3 17.7145 -2.72973 18.5539
555 7 16.1301 -4.77261 19.6164
556 6 15.6964 -6.06161 19.7444
557 8 16.2957 -4.24705 18.2888
558 7 16.0824 -5.15263 17.1983
559 6 15.5089 -6.31686 17.4018
560 1 16.1701 -4.142 20.502
561 1 15.5627 -6.37958 20.7328
562 1 16.0711 -4.7483 16.1808
563 1 14.9322 -7.829 18.7856
564 1 15.2845 -6.85523 16.5259
565 13 12.96 0.42476 21.4728
566 5 16.2311 0.476035 21.3151
567 5 13.1223 -2.47087 21.5323
568 5 12.9183 0.304987 -0.151819
569 12 16.4376 -1.90124 -0.883934
570 6 16.1017 -6.97564 -1.36484
571 4 17.4916 -1.75912 -0.832333
572 4 15.9928 -1.01998 -0.71061
573 4 16.2091 -2.25857 -1.88205
574 10 15.8762 -2.90603 0.0863337
575 3 16.3469 -2.65734 1.05959
576 3 14.7394 -2.68108 0.169946
577 7 17.1954 -4.92222 -0.63814
578 6 17.2751 -6.27935 -1.08948
579 8 15.9563 -4.38969 -0.265324
580 7 14.7954 -5.04727 -0.587542
581 6 14.8613 -6.30921 -1.19824
582 1 18.0599 -4.2717 -0.519528
583 1 18.2521 -6.71638 -1.35353
584 1 13.9034 -4.50771 -0.422466
585 1 16.1447 -8.00615 -1.65325
586 1 14.0481 -6.90397 -1.55936
587 13 12.9624 0.138497 2.80583
588 5 16.0383 0.258653 2.80259
589 5 13.0764 -2.90493 3.06461
590 5 13.1629 0.578933 5.8002
591 12 15.8794 -2.23217 6.01381
592 6 16.0274 -7.18222 4.84863
593 4 16.0137 -2.46951 7.03416
594 4 14.9059 -2.39114 5.93975
595 4 15.9355 -1.19147 5.88935
596 10 16.7781 -2.99933 5.08642
597 3 16.7394 -2.58728 4.10962
598 3 17.7509 -2.93995 5.54495
599 7 16.2879 -5.18768 6.1638
600 6 16.1118 -6.59801 6.08094
601 8 16.4421 -4.48559 5.00192
602 7 16.4103 -5.1206 3.69821
603 6 16.1012 -6.51693 3.64005
604 1 16.3131 -4.63441 7.15359
605 1 16.0066 -7.21613 6.9863
606 1 16.5898 -4.55962 2.82871
607 1 15.7845 -8.25036 4.80498
608 1 15.7635 -7.05205 2.77823
609 13 13.3611 6.67449 9.28639
610 5 16.394 6.24911 8.73398
611 5 13.1128 3.54703 9.05032
612 5 13.6513 6.5528 12.1287
613 11 16.9217 3.63502 11.3254
614 9 15.8159 2.99576 12.3275
615 2 14.859 3.44295 12.1347
616 2 16.1555 3.33204 13.3207
617 2 15.8092 1.88093 12.2309
618 4 16.9315 4.65352 11.2616
619 4 16.7011 3.36373 10.3819
620 4 17.8823 3.30839 11.5259
621 13 13.281 6.56015 14.9983
622 5 16.3451 6.27114 15.2993
623 5 13.1312 3.55607 15.1807
624 5 13.382 6.54219 18.2254
625 11 15.4119 3.45844 17.8994
626 9 16.6644 3.68335 18.5833
627 2 16.3861 3.29967 19.5884
628 2 16.8208 4.79776 18.6673
629 2 17.5157 3.03026 18.2291
630 4 15.5043 3.98151 17.0991
631 4 14.6831 3.94461 18.4525
632 4 15.065 2.50019 17.6724
633 13 13.2672 6.60092 21.4945
634 5 16.4273 6.69503 21.4049
635 5 13.2064 3.51777 21.491
636 5 13.4509 6.55474 -0.269999
637 11 16.4952 3.66393 -1.19978
638 9 15.7579 2.94073 -0.135374
639 2 14.7028 3.24044 -0.218641
640 2 16.2006 3.31467 0.785007
641 2 15.9707 1.84159 -0.269712
642 4 16.4421 4.68866 -1.08038
643 4 16.2622 3.43858 -2.16995
644 4 17.5258 3.56389 -1.14394
645 13 13.2748 6.47956 3.05514
646 5 16.3898 6.47558 2.83988
647 5 13.0954 3.40719 2.76823
648 5 13.3972 6.70864 6.04955
649 11 15.4879 3.87155 6.09405
650 9 16.531 3.11476 5.28634
651 2 17.6088 3.25725 5.59222
652 2 16.4454 3.3921 4.22195
653 2 16.345 2.02884 5.44021
654 4 15.5163 3.71645 7.10816
655 4 14.4607 3.72117 5.82476
656 4 15.5992 4.87406 6.11767
657 13 13.171 12.9001 9.12978
658 5 16.4029 12.5141 9.12103
659 5 13.177 9.83947 9.17125
660 5 13.4654 12.9655 12.1615
661 5 13.078 15.9569 9.15473
662 11 15.7717 10.3419 12.2424
663 9 16.6823 9.25229 11.6992
664 2 17.7727 9.47095 11.8582
665 2 16.4904 9.26673 10.6575
666 2 16.369 8.28712 12.0339
667 4 14.7946 10.2819 11.903
668 4 16.1616 11.218 11.8612
669 4 15.6999 10.4008 13.2442
670 12 17.0827 15.2229 12.1723
671 6 16.0518 20.108 13.3108
672 4 18.0991 15.4025 11.8868
673 4 16.94 14.1973 11.9462
674 4 17.1209 15.2527 13.2318
675 10 16.13 16.2363 11.522
676 3 16.3105 16.2201 10.4053
677 3 15.1358 15.7782 11.8116
678 7 14.8846 18.2318 12.3633
679 6 14.8229 19.5008 12.9274
680 8 16.1222 17.6093 12.0698
681 7 17.348 18.3797 12.2374
682 6 17.2882 19.6172 12.901
683 1 13.9813 17.6272 12.2535
684 1 13.8282 19.9139 13.1395
685 1 18.2982 17.9865 11.9369
686 1 15.9746 21.0834 13.7372
687 1 18.1204 20.1499 13.2146
688 13 13.4326 12.9286 15.2415
689 5 16.4073 12.8092 15.0697
690 5 13.4412 9.58152 14.9686
691 5 13.4927 12.9203 18.4102
692 5 12.8632 16.0851 15.0799
693 11 16.6282 8.95184 17.7837
694 9 15.7856 9.95139 18.559
695 2 14.7119 9.84162 18.3183
696 2 16.1154 10.9869 18.2269
697 2 16.086 9.7761 19.6345
698 4 17.5724 8.961 18.2467
699 4 16.7717 9.26819 16.8532
700 4 16.2331 7.98524 17.7242
701 12 16.924 15.2626 18.3436
702 6 17.8148 20.2737 17.9456
703 4 17.1356 15.4391 19.3548
704 4 17.7807 15.0773 17.8206
705 4 16.4584 14.3161 18.3874
706 10 16.0193 16.3352 17.7323
707 3 15.8321 16.0551 16.6877
708 3 15.0365 16.3914 18.0713
709 7 17.3183 18.0634 18.8635
710 6 17.9301 19.3583 19.0122
711 8 16.6627 17.7054 17.6858
712 7 16.5677 18.582 16.5765
713 6 17.2587 19.8234 16.6958
714 1 17.2284 17.3688 19.7451
715 1 18.277 19.6794 20.0368
716 1 16.0681 18.2447 15.6735
717 1 18.2605 21.2436 18.0696
718 1 17.2475 20.4954 15.849
719 13 13.6159 12.6997 21.4158
720 5 16.5332 12.8725 21.3876
721 5 12.978 9.57995 21.4592
722 5 13.499 12.3622 -0.352327
723 5 13.7907 15.7117 21.6407
724 11 15.729 9.3811 0.382584
725 9 16.5303 9.90889 -0.77233
726 2 16.1947 9.57628 -1.7865
727 2 17.5642 9.50934 -0.634283
728 2 16.6106 11.0163 -0.653361
729 4 15.7802 8.35625 0.389497
730 4 14.7517 9.68556 0.220909
731 4 16.0751 9.74053 1.26667
732 12 15.9765 14.9683 -0.0389726
733 6 16.9398 20.1508 -0.414925
734 4 15.1494 15.015 -0.629121
735 4 15.7613 15.1887 0.955873
736 4 16.214 13.9786 -0.118755
737 10 17.0308 15.852 -0.660941
738 3 17.9658 15.414 -0.202485
739 3 17.0975 15.6367 -1.75246
740 7 16.7587 18.1221 -1.71013
741 6 16.7109 19.5368 -1.67104
742 8 16.9099 17.3304 -0.548508
743 7 17.0121 18.0045 0.649437
744 6 17.1885 19.3883 0.713168
745 1 16.8123 17.582 -2.71149
746 1 16.487 20.148 -2.49948
747 1 17.0436 17.4638 1.54758
748 1 17.111 21.1736 -0.345674
749 1 17.4705 19.8253 1.66555
750 13 13.2241 12.7946 2.85286
751 5 16.2486 12.6176 3.08337
752 5 13.2824 9.56763 3.08959
753 5 13.1275 12.9026 5.94339
754 5 13.7758 16.0366 2.82959
755 11 16.0204 10.1901 6.35621
756 9 16.684 9.13801 5.5374
757 2 16.5049 9.2571 4.50698
758 2 16.3054 8.15719 5.83764
759 2 17.7164 9.21652 5.71343
760 4 16.5127 10.3368 7.2748
761 4 15.0429 9.90676 6.5729
762 4 16.0501 11.1099 5.88803
763 12 16.0352 15.2614 5.53047
764 6 15.5902 20.2627 6.67849
765 4 16.3059 15.4971 4.55498
766 4 14.9642 15.3039 5.57298
767 4 16.2182 14.2693 5.59039
768 10 16.6751 16.023 6.68934
769 3 16.3092 15.5725 7.6461
770 3 17.7301 15.7675 6.58991
771 7 16.2642 18.2811 7.8416
772 6 15.8555 19.6162 7.88103
773 8 16.4239 17.5428 6.68339
774 7 16.0494 18.2067 5.50692
775 6 15.5592 19.5527 5.47631
776 1 16.5992 17.7963 8.72604
777 1 15.7059 20.1604 8.82293
778 1 16.1415 17.5899 4.64206
779 1 15.4072 21.2897 6.72804
780 1 15.2531 20.006 4.55775
781 13 19.2033 0.154225 8.84972
782 5 -2.50543 0.138291 8.6654
783 5 18.785 -2.98085 8.86426
784 5 19.0522 0.442901 11.9409
785 12 -2.89504 -2.12593 12.0364
786 6 -2.57958 -7.18412 12.2012
787 4 -2.69948 -1.13091 11.861
788 4 -2.72134 -2.28464 13.095
789 4 20.8864 -2.32748 11.9667
790 10 -2.11463 -3.0713 11.0996
791 3 -2.39383 -2.86974 10.0275
792 3 -1.09594 -2.88889 11.31
793 7 21.3093 -5.0332 11.577
794 6 21.1301 -6.33996 11.9665
795 8 -2.22986 -4.53322 11.436
796 7 -1.13476 -5.34957 11.6231
797 6 -1.28757 -6.6765 11.9952
798 1 20.4334 -4.41414 11.3876
799 1 20.0777 -6.67434 11.9338
800 1 -0.121042 -4.97145 11.444
801 1 -2.70992 -8.15033 12.5695
802 1 -0.414558 -7.12593 12.2598
803 13 19.3186 0.24357 15.0375
804 5 -2.40823 0.427036 14.6687
805 5 19.3461 -2.91054 14.5679
806 5 19.4338 0.149205 18.0049
807 12 -2.74766 -1.99516 17.2226
808 6 -2.9235 -7.04219 18.0087
809 4 -2.48159 -1.01447 17.3415
810 4 21.1322 -2.01866 17.0208
811 4 -2.34496 -2.31566 16.376
812 10 -2.29568 -2.84254 18.4477
813 3 -1.25321 -2.68071 18.6527
814 3 -2.7486 -2.36734 19.279
815 7 -1.48461 -5.1884 18.3452
816 6 -1.60498 -6.6099 18.1804
817 8 -2.57063 -4.34121 18.4294
818 7 20.9587 -4.81638 18.2604
819 6 20.7822 -6.17618 18.0035
820 1 -0.497776 -4.74278 18.3848
821 1 -0.758617 -7.2852 18.0309
822 1 20.1298 -4.15355 18.2237
823 1 -3.0199 -8.05579 17.6501
824 1 19.741 -6.52797 17.81
825 13 19.3203 0.458527 21.2632
826 5 -2.35922 0.405502 21.06
827 5 19.1913 -2.65287 21.585
828 5 19.2586 0.725195 -0.531109
829 12 -2.12855 -1.99319 0.103822
830 6 -2.46716 -6.77101 0.69357
831 4 -2.92825 -2.29181 0.664369
832 4 -2.33663 -1.01639 -0.215808
833 4 -1.39099 -1.98018 0.835993
834 10 -1.82479 -2.92374 -1.06364
835 3 -2.49381 -2.69231 -1.9341
836 3 -0.777403 -2.74078 -1.26615
837 7 -0.935621 -5.09529 -0.0872344
838 6 -1.12527 -6.31889 0.63959
839 8 -1.99466 -4.38809 -0.655033
840 7 21.5056 -4.8191 -0.522754
841 6 21.2948 -5.94689 0.315356
842 1 0.0349466 -4.59342 -0.0562725
843 1 -0.350832 -6.82037 1.20679
844 1 20.6312 -4.30813 -0.772526
845 1 -2.6858 -7.6451 1.31903
846 1 20.1966 -6.27556 0.484475
847 13 19.2766 0.134262 2.65182
848 5 -2.38534 0.364786 2.68323
849 5 19.5464 -2.72934 2.31633
850 5 19.1994 0.127195 5.73919
851 12 -1.71152 -2.28892 5.41676
852 6 21.5224 -6.96908 4.26643
853 4 -0.838282 -2.71811 5.54157
854 4 -1.58364 -1.35084 5.81533
855 4 -1.90579 -2.24823 4.41943
856 10 -2.7409 -3.16804 6.14014
857 3 -2.60808 -3.29095 7.23048
858 3 21.1488 -2.69291 6.06425
859 7 -1.82989 -5.31715 5.21236
860 6 -1.98357 -6.56992 4.55129
861 8 -2.91987 -4.47847 5.48425
862 7 20.63 -4.92864 5.17572
863 6 20.4593 -6.16524 4.57611
864 1 -0.784354 -5.01218 5.4811
865 1 -1.18783 -7.16075 4.31189
866 1 19.7611 -4.45366 5.47385
867 1 21.4301 -7.95762 3.82891
868 1 19.4439 -6.5199 4.33625
869 13 19.5044 6.38082 8.57859
870 5 -2.28775 6.19991 9.08195
871 5 19.3195 3.32148 8.43432
872 5 19.5112 6.28489 11.8669
873 11 -1.88562 4.12628 12.0115
874 9 -2.5808 2.9988 11.2796
875 2 21.2137 3.01684 11.5482
876 2 -2.10498 2.02168 11.464
877 2 -2.64274 3.18881 10.1997
878 4 -0.924443 4.19753 11.6368
879 4 -1.84533 3.93568 13.0035
880 4 -2.36934 5.03891 11.8872
881 13 19.3986 6.31105 15.0139
882 5 -2.20811 6.22279 14.8946
883 5 19.3329 3.29486 14.9906
884 5 19.7508 6.40746 17.9361
885 11 -2.6144 2.93764 17.3764
886 9 -1.69029 3.69169 18.3083
887 2 -1.81797 4.74685 17.9675
888 2 -0.631769 3.50059 18.1352
889 2 -2.00074 3.66529 19.3502
890 4 -2.51079 3.23344 16.4329
891 4 21.1747 3.20941 17.4621
892 4 -2.51358 1.93078 17.4299
893 13 19.544 6.69265 21.1957
894 5 -2.17234 6.56303 20.9743
895 5 19.3765 3.60084 21.2975
896 5 19.4988 6.71954 -0.413758
897 11 -3.06488 3.74015 0.00952745
898 9 -1.94755 3.39711 -1.04771
899 2 -2.30411 3.79266 -2.01355
900 2 -1.79536 2.31347 -0.88188
901 2 -0.953089 3.82873 -0.768624
902 4 21.636 4.75748 0.198368
903 4 -2.8885 3.1883 0.902704
904 4 20.8655 3.51092 -0.340109
905 13 19.4125 6.58819 2.68677
906 5 -2.20171 6.68352 2.42302
907 5 19.6334 3.47716 2.77711
908 5 19.8505 6.63446 5.74255
909 11 -2.96633 2.51161 5.81244
910 9 -1.97151 3.57593 5.33242
911 2 -2.22271 4.45204 5.85742
912 2 -2.06332 3.58112 4.23142
913 2 -0.942411 3.33102 5.48256
914 4 20.956 2.88633 5.77425
915 4 -2.88306 2.29124 6.70522
916 4 -2.91343 1.61317 5.2817
917 13 19.5228 12.6455 8.99553
918 5 -2.31672 12.7508 8.70779
919 5 19.5266 9.54904 8.77352
920 5 19.4742 12.3344 12.081
921 5 19.5532 15.7475 9.44535
922 11 -1.98363 10.2663 11.585
923 9 -2.6818 9.23374 12.4596
924 2 -2.32792 9.38456 13.4851
925 2 -2.4379 8.21892 12.1283
926 2 21.0978 9.43455 12.3805
927 4 -2.0478 9.9978 10.5753
928 4 -1.0183 10.3529 11.8053
929 4 -2.34992 11.2332 11.5957
930 12 -2.25443 15.0326 12.1991
931 6 -2.85167 20.173 11.3344
932 4 -1.75852 14.0985 12.1223
933 4 21.5504 14.97 12.0142
934 4 -2.12962 15.2326 13.2106
935 10 -1.37778 15.9649 11.2943
936 3 -0.327247 15.8905 11.5255
937 3 -1.51629 15.5308 10.3582
938 7 -2.28516 18.0242 12.5653
939 6 -2.84841 19.3353 12.5048
940 8 -1.89186 17.4415 11.2961
941 7 -1.91847 18.2058 10.14
942 6 -2.34163 19.5575 10.1552
943 1 -2.37892 17.3865 13.4966
944 1 21.6653 19.7698 13.4347
945 1 -1.68177 17.7031 9.2168
946 1 21.6535 21.1573 11.4034
947 1 -2.2067 20.166 9.27229
948 13 19.4602 12.4366 15.0756
949 5 -2.22063 12.6013 14.908
950 5 19.4383 9.49912 15.1646
951 5 19.3537 12.5881 18.0711
952 5 19.5876 15.6356 14.7668
953 11 -2.3718 8.69274 17.4124
954 9 -2.07203 9.85244 18.3308
955 2 -2.75879 9.74609 19.1868
956 2 -2.20116 10.7926 17.7359
957 2 -1.01706 10.0043 18.7141
958 4 -1.89046 8.73423 16.4833
959 4 21.4419 8.5591 17.1914
960 4 -2.02866 7.84829 17.8526
961 12 -2.69545 15.1487 17.8646
962 6 -2.95339 20.4364 17.993
963 4 -2.24774 14.2321 18.0086
964 4 -2.73427 15.3568 16.8577
965 4 21.1799 15.0747 18.1898
966 10 -1.8873 16.1909 18.5914
967 3 -2.02783 16.0074 19.6609
968 3 -0.866905 15.9548 18.4061
969 7 -2.47477 18.4451 19.4134
970 6 -2.82134 19.8618 19.2958
971 8 -2.305 17.6439 18.2556
972 7 -2.52956 18.2197 16.9373
973 6 -2.83972 19.6138 16.8458
974 1 -2.36001 17.95 20.3811