LAMMPS (23 Jun 2022)
OMP_NUM_THREADS environment is not set. Defaulting to 1 thread. (src/src/comm.cpp:98)
  using 1 OpenMP thread(s) per MPI task
Reading data file ...
  orthogonal box = (-3.1 -69.095259 -3.1) to (21.7 81.495259 21.7)
  2 by 16 by 4 MPI processor grid
  reading atoms ...
  1040 atoms
  scanning bonds ...
  4 = max bonds/atom
  scanning angles ...
  11 = max angles/atom
  scanning dihedrals ...
  21 = max dihedrals/atom
  reading bonds ...
  800 bonds
  reading angles ...
  1344 angles
  reading dihedrals ...
  1536 dihedrals
Finding 1-2 1-3 1-4 neighbors ...
  special bond factors lj:    0        0        0.5     
  special bond factors coul:  0        0        0.8333333333333334
     4 = max # of 1-2 neighbors
     7 = max # of 1-3 neighbors
    14 = max # of 1-4 neighbors
    16 = max # of special neighbors
  special bonds CPU = 0.005 seconds
  read_data CPU = 0.082 seconds
PPPM initialization ...
  using 12-bit tables for long-range coulomb (src/src/kspace.cpp:342)
  G vector (1/distance) = 0.16060837
  grid = 8 30 8
  stencil order = 5
  estimated absolute RMS force accuracy = 0.029618246
  estimated relative force accuracy = 8.9194468e-05
  using double precision FFTW3
  3d grid and FFT values/proc = 504 16
Generated 0 of 78 mixed pair_coeff terms from arithmetic mixing rule
Neighbor list info ...
  update every 1 steps, delay 10 steps, check yes
  max neighbors/atom: 10000, page size: 100000
  master list distance cutoff = 17
  ghost atom cutoff = 17
  binsize = 8.5, bins = 3 18 3
  3 neighbor lists, perpetual/occasional/extra = 3 0 0
  (1) pair buck/coul/long, perpetual, skip from (3)
      attributes: half, newton off
      pair build: skip
      stencil: none
      bin: none
  (2) pair lj/cut/coul/long, perpetual, skip from (3)
      attributes: half, newton off
      pair build: skip
      stencil: none
      bin: none
  (3) neighbor class addition, perpetual
      attributes: half, newton off
      pair build: half/bin/newtoff
      stencil: full/bin/3d
      bin: standard
Setting up Verlet run ...
  Unit style    : real
  Current step  : 0
  Time step     : 1
Per MPI rank memory allocation (min/avg/max) = 19.58 | 19.73 | 20.15 Mbytes
   Step          Temp          Volume        Density         TotEng         PotEng         E_bond        E_angle        E_dihed         E_coul         E_long         E_vdwl        Enthalpy        Press     
         0      298.000000   92619.192734       0.622799  -23223.575832  -24146.500202      22.970839      26.874948       4.403687  -18457.474877  -11846.078831    6102.804032    5940.011180   21590.567550
      1000       93.652372   92619.192734       0.622799  -30178.452165  -30468.499334      11.759566      43.566814      34.626403  -18657.224829  -11930.620653      29.393366  -29669.648568     376.680633
      2000       73.806882   92619.192734       0.622799  -30335.989377  -30564.573840      13.101390      41.505427      25.292877  -18565.206848  -11930.308602    -148.958084  -30885.331432    -406.692316
      3000       65.140439   92619.192734       0.622799  -30406.526600  -30608.270554      11.182512      39.868321      20.274363  -18581.945686  -11928.832986    -168.817077  -30898.128552    -363.945805
      4000       55.440868   92619.192734       0.622799  -30462.473645  -30634.177432       9.540472      38.186286      19.080438  -18700.232058  -11929.611825     -71.140745  -30332.127917      96.498357
      5000       49.798104   92619.192734       0.622799  -30498.890177  -30653.117974       9.466902      38.373278      21.468007  -18709.007180  -11931.595703     -81.823278  -30368.488601      96.539703
      6000       45.913092   92619.192734       0.622799  -30533.043432  -30675.239108      10.342427      38.462805      16.988605  -18647.583351  -11929.912800    -163.536793  -31011.710261    -354.369595
      7000       42.457734   92619.192734       0.622799  -30555.152087  -30686.646307      10.860869      38.871197      22.200534  -18656.077755  -11931.681482    -170.819668  -30909.318105    -262.198382
      8000       39.146235   92619.192734       0.622799  -30568.493201  -30689.731502      10.205199      38.548308      18.981611  -18720.825023  -11931.017488    -105.624110  -30574.539856      -4.476498
      9000       37.892590   92619.192734       0.622799  -30583.958554  -30701.314239      11.335904      39.410116      19.077815  -18701.994911  -11930.465037    -138.678126  -30900.125275    -234.066507
     10000       37.311383   92619.192734       0.622799  -30598.960947  -30714.516601      10.454400      37.358375      20.254081  -18649.052118  -11931.347980    -202.183358  -31152.185828    -409.566874
Loop time of 17.4334 on 128 procs for 10000 steps with 1040 atoms

Performance: 49.560 ns/day, 0.484 hours/ns, 573.610 timesteps/s
99.5% CPU use with 128 MPI tasks x 1 OpenMP threads

MPI task timing breakdown:
Section |  min time  |  avg time  |  max time  |%varavg| %total
---------------------------------------------------------------
Pair    | 0.0020437  | 2.1541     | 13.011     | 278.9 | 12.36
Bond    | 0.00088621 | 0.0588     | 0.28911    |  41.9 |  0.34
Kspace  | 2.6195     | 13.975     | 16.359     | 116.2 | 80.16
Neigh   | 0.10264    | 0.11128    | 0.11824    |   1.7 |  0.64
Comm    | 0.002509   | 0.17459    | 0.54605    |  46.9 |  1.00
Output  | 0.013186   | 0.013225   | 0.014989   |   0.1 |  0.08
Modify  | 0.87332    | 0.88166    | 0.88911    |   0.4 |  5.06
Other   |            | 0.06459    |            |       |  0.37

Nlocal:          8.125 ave          46 max           0 min
Histogram: 96 0 0 1 5 6 3 3 10 4
Nghost:        849.688 ave        2941 max           0 min
Histogram: 64 16 0 0 16 0 0 16 0 16
Neighs:              0 ave           0 max           0 min
Histogram: 128 0 0 0 0 0 0 0 0 0

Total # of neighbors = 0
Ave neighs/atom = 0
Ave special neighs/atom = 6.8923077
Neighbor list builds = 71
Dangerous builds = 0
PPPM initialization ...
  using 12-bit tables for long-range coulomb (src/src/kspace.cpp:342)
  G vector (1/distance) = 0.16060837
  grid = 8 30 8
  stencil order = 5
  estimated absolute RMS force accuracy = 0.029618246
  estimated relative force accuracy = 8.9194468e-05
  using double precision FFTW3
  3d grid and FFT values/proc = 504 16
Generated 0 of 78 mixed pair_coeff terms from arithmetic mixing rule
Setting up Verlet run ...
  Unit style    : real
  Current step  : 10000
  Time step     : 1
Per MPI rank memory allocation (min/avg/max) = 19.58 | 19.73 | 20.16 Mbytes
   Step          Temp          Volume        Density         TotEng         PotEng         E_bond        E_angle        E_dihed         E_coul         E_long         E_vdwl        Enthalpy        Press     
     10000       37.311383   92619.192734       0.622799  -30598.960947  -30714.516601      10.454400      37.358375      20.254081  -18649.052118  -11931.347980    -202.183358  -31152.185828    -409.566874
     11000      154.273726   95255.038377       0.605565  -29738.910366  -30216.705605      24.446044      65.643220      47.171381  -18271.240691  -11928.040397    -154.685163  -30557.578651    -589.310421
     12000      287.881783   94987.491784       0.607271  -28963.038148  -29854.625776      38.557117     120.612998      94.584241  -18230.079229  -11924.376650      46.075747  -28832.624115      94.141695
     13000      292.192361   95888.114566       0.601567  -28836.716238  -29741.653993      63.358508     149.445504      84.615500  -18178.329966  -11925.507440      64.763901  -28382.292706     324.952696
     14000      297.631347   94018.214583       0.613532  -28907.470948  -29829.253577      77.867124     167.345497      84.699365  -18309.665573  -11921.268911      71.768921  -28569.000147     246.850107
     15000      309.614684   94673.841349       0.609283  -28852.605932  -29811.501694      87.293956     186.120028     115.246366  -18375.627660  -11923.537683      99.003299  -28225.295284     454.335604
     16000      303.007689   95359.484918       0.604902  -28825.920009  -29764.353499     120.574822     208.997219      94.639442  -18194.700069  -11925.132443     -68.732471  -28921.132706     -68.462867
     17000      301.811076   93854.107060       0.614604  -28911.901960  -29846.629468     123.714769     217.776982     104.099062  -18334.313337  -11925.612653     -32.294290  -28516.746400     288.694777
     18000      300.141583   95228.712762       0.605733  -28911.835061  -29841.392045     132.106849     212.545495      91.202260  -18300.534186  -11927.947777     -48.764686  -28750.297932     116.313080
     19000      305.389569   93553.739152       0.616578  -28854.017015  -29799.827334     148.235948     221.604295     103.001548  -18394.641009  -11924.347629      46.319512  -28703.619986     110.230612
     20000      303.667538   94632.561008       0.609549  -28873.474590  -29813.951673     158.185270     233.819564      97.055452  -18323.800110  -11924.605316     -54.606534  -28995.206678     -88.204063
     21000      301.437288   93527.597569       0.616750  -28935.427718  -29868.997580     171.459402     236.729832     108.180902  -18389.033042  -11929.556934     -66.777740  -28851.876382      61.254462
     22000      291.421093   94857.402514       0.608104  -28924.042581  -29826.591670     178.166846     245.739344     116.131141  -18390.431006  -11925.232252     -50.965744  -28781.100056     103.327122
     23000      301.664425   93115.417743       0.619480  -28904.501784  -29838.775104     191.976050     238.379043     103.944448  -18373.841212  -11929.177062     -70.056371  -28799.777113      77.117247
     24000      297.579103   93956.335884       0.613936  -28907.280617  -29828.901441     191.593933     261.113825      91.503866  -18458.248261  -11921.446135       6.581331  -28497.616999     298.968502
     25000      308.804970   93547.027839       0.616622  -28883.227777  -29839.615804     187.841667     250.354156     106.457113  -18446.892087  -11922.943332     -14.433321  -28673.301388     153.872550
     26000      297.070589   93607.200740       0.616226  -28935.147611  -29855.193537     181.660481     266.196044     106.620800  -18470.950654  -11926.760092     -11.960118  -28303.450299     462.725977
     27000      299.833633   93662.055576       0.615865  -28923.600884  -29852.204126     175.809843     263.709355     108.296230  -18414.166863  -11926.128135     -59.724556  -29189.630201    -194.755587
     28000      290.390151   93809.372512       0.614898  -28926.616262  -29825.972460     198.654267     276.090116     116.938430  -18439.671030  -11926.510064     -51.474179  -28411.940429     376.193819
     29000      287.994488   92546.538621       0.623288  -28992.716409  -29884.653091     200.405914     279.026294     103.449124  -18560.810735  -11927.572302      20.848614  -29339.459797    -256.904741
     30000      304.201078   93332.770561       0.618038  -28929.144354  -29871.273844     211.241269     263.860712     101.143581  -18462.608075  -11927.194718     -57.716612  -29170.620644    -177.404424
     31000      289.829490   92816.266253       0.621477  -28970.928202  -29868.547997     201.925625     265.393840     101.519729  -18445.674951  -11926.934968     -64.777273  -28618.195989     260.582435
     32000      295.550560   93341.306865       0.617981  -28963.134473  -29878.472776     220.884358     284.856187      99.741748  -18491.087376  -11925.641031     -67.226663  -29451.518595    -358.766405
     33000      301.621074   92725.507751       0.622085  -28931.837107  -29865.976167     196.816024     280.656653     112.423809  -18531.516638  -11927.493912       3.137897  -28294.001353     471.665109
     34000      289.121561   93786.321893       0.615049  -28963.340459  -29858.767755     221.813778     265.630091     105.351344  -18409.975393  -11925.587872    -115.999702  -29525.106516    -410.714562
     35000      296.493856   92955.252608       0.620548  -28964.053189  -29882.312938     230.260125     275.649454     105.768741  -18516.936313  -11925.888244     -51.166701  -29380.050600    -306.860369
     36000      298.364551   92432.458298       0.624057  -28940.371108  -29864.424516     220.368480     286.505388     101.526604  -18549.398219  -11926.151400       2.724631  -28876.461778      47.409336
     37000      299.811344   93935.595989       0.614071  -28911.952674  -29840.486888     233.953732     271.713675     122.147660  -18429.190291  -11926.883372    -112.228292  -29558.309175    -471.808800
     38000      292.694276   93377.278803       0.617743  -28971.838422  -29878.330636     211.864361     272.405902     114.091063  -18478.593948  -11926.953961     -71.144054  -29341.637095    -271.549024
     39000      299.060326   92820.247714       0.621450  -28905.748139  -29831.956403     246.991631     305.792038     108.897317  -18538.318090  -11923.290783     -32.028516  -28874.406890      23.152489
     40000      304.371965   93478.367419       0.617075  -28888.689270  -29831.348006     234.607991     289.870430     124.848445  -18486.202136  -11928.934735     -65.538002  -28509.726407     277.977500
     41000      299.258832   92519.164686       0.623473  -28925.234561  -29852.057610     219.454359     291.604957     116.232382  -18494.064962  -11925.695927     -59.588418  -29195.884781    -200.586080
     42000      290.212713   93549.632315       0.616605  -28923.452995  -29822.259658     222.937146     298.174438     111.467779  -18489.949910  -11926.105623     -38.783487  -28711.903772     155.057744
     43000      297.090289   92484.362137       0.623707  -28919.970636  -29840.077575     244.060870     287.301743     108.743017  -18529.952675  -11928.686299     -21.544231  -28905.539588      10.699259
     44000      291.601202   93667.091914       0.615832  -28958.562429  -29861.669325     221.860828     284.952511     116.228686  -18522.434484  -11928.550329     -33.726537  -29010.886449     -38.303475
     45000      302.283315   92844.490026       0.621288  -28935.488395  -29871.678455     221.038701     277.232594     113.272862  -18486.816569  -11926.884740     -69.521303  -28819.827687      85.418870
     46000      309.146453   92938.212690       0.620661  -28914.650085  -29872.095706     215.367599     278.612775     112.164812  -18563.932631  -11926.922466      12.614205  -28601.906720     230.737349
     47000      283.974563   92480.589225       0.623733  -29013.583411  -29893.070138     225.003084     272.947809     119.045899  -18532.966507  -11924.215277     -52.885145  -28904.108925      81.168298
     48000      288.116495   93608.671381       0.616216  -28944.494745  -29836.809291     226.035421     300.089182     116.775459  -18486.021787  -11924.737701     -68.949865  -29159.434089    -157.443214
     49000      300.748378   92902.500188       0.620900  -28908.067700  -29839.503966     216.855199     296.393599     123.971438  -18473.447329  -11927.111038     -76.165836  -28615.606126     215.856694
     50000      284.822620   93996.318192       0.613675  -28946.214237  -29828.327449     244.407693     286.383230     128.970956  -18522.739813  -11926.163861     -39.185655  -29463.914769    -377.652079
     51000      278.010408   92483.936676       0.623710  -29024.657892  -29885.673263     237.793876     259.087567     105.582593  -18496.079170  -11924.472634     -67.585493  -29094.494004     -51.777116
     52000      310.465245   93869.008056       0.614507  -28876.264181  -29837.794182     233.625998     299.086546     109.157498  -18465.039767  -11927.295914     -87.328544  -28801.116749      54.892881
     53000      294.746438   93181.572004       0.619040  -28929.644580  -29842.492468     239.391175     284.993799     111.579040  -18473.867065  -11927.687596     -76.901821  -28890.422169      28.862129
     54000      296.754289   93146.354483       0.619274  -28906.824142  -29825.890468     244.303685     303.373387     102.945701  -18513.404781  -11924.421384     -38.687075  -29414.854922    -373.979911
     55000      306.411465   93487.484419       0.617015  -28922.111988  -29871.087183     245.978430     264.675195     122.763864  -18571.101888  -11925.847481      -7.555302  -28821.857094      73.531973
     56000      289.166129   92648.600782       0.622601  -28984.240313  -29879.805639     239.836252     281.307738     103.437058  -18506.486018  -11923.013340     -74.887330  -29350.710196    -271.221139
     57000      297.221303   93879.080518       0.614441  -28909.439265  -29829.951962     247.751462     297.885813     106.435569  -18491.663471  -11927.953734     -62.407601  -29163.325347    -185.436054
     58000      308.689660   92352.835377       0.624595  -28857.890530  -29813.921435     261.075977     301.792382     123.651009  -18491.221822  -11927.722448     -81.496533  -28724.408349      99.105366
     59000      303.352425   93412.472062       0.617510  -28917.141352  -29856.642513     252.880505     293.887376     115.998718  -18502.097219  -11929.054848     -88.257044  -29042.465088     -91.992533
     60000      296.100543   92690.017009       0.622323  -28914.051008  -29831.092641     246.432552     317.872249     105.693524  -18524.968803  -11927.777765     -48.344396  -28699.339770     158.834897
     61000      301.046196   93419.279393       0.617465  -28942.149631  -29874.508259     233.130894     298.632279     109.095782  -18471.396695  -11927.613732    -116.356786  -29296.839525    -260.337309
     62000      296.336566   92298.777912       0.624961  -28965.934399  -29883.707010     246.371088     288.255395     110.006386  -18615.844367  -11929.336101      16.840589  -28616.448942     259.631432
     63000      301.966705   93193.610702       0.618960  -28925.975744  -29861.185245     258.531367     286.045890      95.327996  -18585.264508  -11922.056812       6.230822  -28855.801237      51.631809
     64000      302.011962   93125.791346       0.619411  -28925.749544  -29861.099208     245.719865     307.792037     105.747523  -18488.096346  -11926.745291    -105.516997  -28654.848940     199.463809
     65000      288.055485   93377.338929       0.617743  -28958.964159  -29851.089752     257.899395     297.631108     107.685321  -18546.782010  -11927.071354     -40.452212  -29138.503388    -131.838415
     66000      305.574264   91893.976564       0.627714  -28935.814546  -29882.196878     241.723981     292.090942     109.745211  -18575.453612  -11926.867666     -23.435735  -28965.219732     -21.941232
     67000      299.045974   92889.069781       0.620990  -28982.043478  -29908.207295     227.023479     291.070118      94.682685  -18566.365205  -11927.738752     -26.879620  -28576.603905     299.285470
     68000      299.466682   93153.965154       0.619224  -28940.903962  -29868.370737     255.992649     285.616316     112.728410  -18514.719477  -11928.265189     -79.723446  -29490.186129    -404.313520
     69000      302.183911   92673.356654       0.622435  -28972.575498  -29908.457699     253.102247     279.113639     101.880955  -18550.633404  -11926.933555     -64.987579  -29158.034129    -137.219638
     70000      289.428046   93148.455877       0.619260  -28938.853933  -29835.230431     266.494940     321.671114     106.598825  -18543.611667  -11930.279315     -56.104329  -29144.528154    -151.400850
     71000      310.200968   92571.823700       0.623118  -28918.542181  -29879.253701     258.260135     284.051006     116.617471  -18589.696661  -11926.689398     -21.796255  -28897.892629      15.295227
     72000      292.939002   93043.071321       0.619962  -29001.190476  -29908.440621     253.590659     256.346643     109.473118  -18527.917601  -11928.445410     -71.488031  -29227.045817    -166.444879
     73000      298.230379   92290.202612       0.625019  -28910.782133  -29834.420002     267.892641     303.839807     116.749689  -18528.111153  -11926.297315     -68.493671  -28861.601055      36.539833
     74000      302.594574   93130.280883       0.619381  -28936.805408  -29873.959457     270.325244     296.258389     105.658729  -18524.073723  -11927.472981     -94.655114  -29407.276453    -346.390600
     75000      304.400544   92474.457026       0.623774  -28894.371965  -29837.119213     251.514403     308.444412     119.149396  -18537.812023  -11924.985208     -53.430191  -28882.842157       8.549179
     76000      308.160874   93062.039706       0.619835  -28877.943739  -29832.336962     260.307240     289.628350     123.650654  -18537.604256  -11929.000729     -39.318221  -28674.682778     149.763341
     77000      302.081468   93373.191292       0.617770  -28972.370452  -29907.935380     239.602932     281.524949     117.736033  -18529.720991  -11924.662043     -92.416260  -29456.387735    -355.437117
     78000      305.181960   92759.012199       0.621860  -28968.520282  -29913.687625     241.608505     284.496511     121.412840  -18473.287429  -11929.020036    -158.898017  -29211.709926    -179.768284
     79000      286.644739   93416.831229       0.617481  -28925.192602  -29812.949028     267.415421     311.035549     114.867000  -18523.683141  -11927.197561     -55.386296  -29114.600740    -139.026508
     80000      292.076853   92600.877709       0.622922  -28947.391448  -29851.971465     257.958606     295.197147     121.708020  -18487.733911  -11929.195733    -109.905594  -28767.152743     133.461827
     81000      285.603617   93401.757392       0.617581  -29007.216066  -29891.748072     240.802063     299.975795     122.441576  -18571.507729  -11930.364821     -53.094956  -29392.652307    -282.957761
     82000      302.485450   92415.247721       0.624174  -28947.466647  -29884.282732     234.447731     298.644290      98.085284  -18524.915689  -11931.198339     -59.346009  -28835.201254      83.296429
     83000      306.744411   93400.241068       0.617591  -28911.418620  -29861.424968     260.902143     298.187763     113.030570  -18534.039529  -11927.481713     -72.024204  -29212.062137    -220.713022
     84000      303.033469   93008.357755       0.620193  -28944.720578  -29883.233910     226.913221     319.350372     121.231049  -18538.441322  -11930.061680     -82.225550  -29157.693799    -157.009935
     85000      300.063198   92617.466777       0.622811  -28921.393983  -29850.708205     260.407659     304.205068     107.167455  -18539.605091  -11928.791673     -54.091623  -28741.448499     133.220839
     86000      295.657192   92547.862959       0.623279  -28985.901281  -29901.569828     240.308497     286.775908      97.563251  -18607.001532  -11925.437110       6.221156  -28726.518264     192.176046
     87000      299.959014   92430.827661       0.624068  -28915.301271  -29844.292828     265.408029     310.295928     116.907118  -18527.321807  -11926.927375     -82.654721  -29207.401785    -216.690360
     88000      300.815062   92748.849747       0.621929  -28944.488382  -29876.131172     227.756760     308.700533     114.025752  -18601.911577  -11925.267227       0.564587  -28551.910118     290.229684
     89000      297.109390   92991.344726       0.620307  -28968.921549  -29889.087645     241.171373     292.702077     114.083129  -18572.754077  -11927.532722     -36.757424  -28544.141720     313.217102
     90000      303.504192   92769.929942       0.621787  -28911.545690  -29851.516883     254.733780     291.593465     113.363192  -18522.351775  -11927.591552     -61.263992  -29082.173600    -126.115061
     91000      305.177449   92320.282210       0.624816  -28888.304134  -29833.457506     254.269396     295.731707     131.616244  -18557.037538  -11927.689408     -30.347906  -28322.166922     420.483239
     92000      298.704957   93732.183525       0.615404  -28912.780442  -29837.888105     248.554986     309.451280     123.942544  -18513.337967  -11924.308618     -82.190330  -29325.069906    -301.604358
     93000      287.188808   92686.900063       0.622344  -28998.223360  -29887.664803     259.867735     296.773201      99.407801  -18575.254510  -11926.658965     -41.800064  -28918.410196      59.044613
     94000      296.898118   92738.779576       0.621996  -28942.460282  -29861.972054     249.482455     290.596135     128.819635  -18529.516201  -11925.106317     -76.247762  -28929.726481       9.415010
     95000      300.997225   93227.088553       0.618738  -28938.717727  -29870.924687     246.485947     310.995215     117.508547  -18536.623533  -11928.212189     -81.078676  -29028.698171     -66.180512
     96000      303.541943   92104.916526       0.626277  -28911.436738  -29851.524845     272.992582     294.938295     117.982614  -18622.793149  -11925.208069      10.562883  -28998.003052     -64.445147
     97000      292.866550   93119.179627       0.619455  -28964.515352  -29871.541109     243.627514     280.551560     103.356629  -18467.586846  -11929.319317    -102.170650  -28953.534255       8.085943
     98000      287.827344   92858.404214       0.621195  -28981.440909  -29872.859937     241.511231     298.560882      98.830041  -18528.784853  -11928.156871     -54.820368  -28666.872030     232.283654
     99000      299.712503   93418.480855       0.617470  -28910.449525  -29838.677620     267.136861     303.060105     118.047196  -18541.701803  -11927.120592     -58.099387  -29748.275577    -614.957597
    100000      301.086245   92813.239576       0.621497  -28940.520797  -29873.003458     241.275765     282.098176     125.356939  -18564.576029  -11930.018090     -27.140218  -28653.639443     211.941743
    101000      289.295525   92626.362649       0.622751  -28966.131351  -29862.097425     251.436780     289.120616     108.079888  -18547.597660  -11926.933657     -36.203392  -28994.502623     -21.002370
    102000      298.727846   92898.433543       0.620927  -28921.169555  -29846.348108     253.857516     294.294080     110.497914  -18510.949432  -11927.448578     -66.599609  -28964.056702     -31.655041
    103000      294.547975   93185.647372       0.619013  -28949.266111  -29861.499346     253.137548     294.846384     113.388839  -18488.866532  -11927.749615    -106.255968  -29081.804057     -97.524857
    104000      292.815828   93026.221559       0.620074  -28946.633435  -29853.502105     258.216167     286.179174     123.948978  -18503.119399  -11928.494089     -90.232936  -29230.631558    -209.331314
    105000      298.505360   92481.925261       0.623724  -28886.013149  -29810.502650     263.915584     321.300964     117.620212  -18603.254312  -11926.774330      16.689232  -28664.367994     164.333268
    106000      296.212397   92459.925385       0.623872  -28971.190840  -29888.578892     245.799257     290.918757     106.881440  -18535.837583  -11924.994995     -71.345767  -29051.834482     -59.805443
    107000      308.109913   92767.716122       0.621802  -28943.043151  -29897.278542     236.502156     312.450971     107.823990  -18602.696423  -11926.797332     -24.561904  -28949.682406      -4.907345
    108000      300.700722   92296.042571       0.624980  -28927.139146  -29858.427817     252.437406     296.646342     114.440095  -18588.894332  -11925.012030      -8.045298  -29177.510634    -186.005549
    109000      299.549478   92718.086857       0.622135  -28924.530351  -29852.253550     233.634881     317.188829     113.431535  -18609.018726  -11925.355032      17.864963  -28708.446665     159.801786
    110000      300.877312   92962.774766       0.620497  -28929.246569  -29861.082150     265.552649     293.153253     114.298504  -18507.600268  -11929.032095     -97.454192  -29082.302911    -112.892831
Loop time of 182.958 on 128 procs for 100000 steps with 1040 atoms

Performance: 47.224 ns/day, 0.508 hours/ns, 546.574 timesteps/s
99.5% CPU use with 128 MPI tasks x 1 OpenMP threads

MPI task timing breakdown:
Section |  min time  |  avg time  |  max time  |%varavg| %total
---------------------------------------------------------------
Pair    | 0.022221   | 21.163     | 139.65     | 867.8 | 11.57
Bond    | 0.009221   | 0.52562    | 2.7492     | 126.0 |  0.29
Kspace  | 17.989     | 141.31     | 164.77     | 356.8 | 77.24
Neigh   | 4.0308     | 4.3144     | 4.4741     |   7.7 |  2.36
Comm    | 0.050547   | 1.902      | 5.8381     | 151.7 |  1.04
Output  | 0.089731   | 0.09002    | 0.11659    |   0.8 |  0.05
Modify  | 12.592     | 12.862     | 13.361     |   6.3 |  7.03
Other   |            | 0.7915     |            |       |  0.43

Nlocal:          8.125 ave          42 max           0 min
Histogram: 96 0 0 0 2 5 5 4 4 12
Nghost:        914.633 ave        3168 max           0 min
Histogram: 64 16 0 0 16 0 4 12 0 16
Neighs:              0 ave           0 max           0 min
Histogram: 128 0 0 0 0 0 0 0 0 0

Total # of neighbors = 0
Ave neighs/atom = 0
Ave special neighs/atom = 6.8923077
Neighbor list builds = 2816
Dangerous builds = 0
PPPM initialization ...
  using 12-bit tables for long-range coulomb (src/src/kspace.cpp:342)
  G vector (1/distance) = 0.16057227
  grid = 8 30 8
  stencil order = 5
  estimated absolute RMS force accuracy = 0.029640736
  estimated relative force accuracy = 8.9262195e-05
  using double precision FFTW3
  3d grid and FFT values/proc = 504 16
Generated 0 of 78 mixed pair_coeff terms from arithmetic mixing rule
Setting up Verlet run ...
  Unit style    : real
  Current step  : 110000
  Time step     : 1
Per MPI rank memory allocation (min/avg/max) = 19.58 | 19.73 | 20.16 Mbytes
   Step          Temp          Volume        Density         TotEng         PotEng         E_bond        E_angle        E_dihed         E_coul         E_long         E_vdwl        Enthalpy        Press     
    110000      300.877312   92962.774766       0.620497  -28929.266960  -29861.102541     265.552649     293.153253     114.298504  -18510.293960  -11926.358795     -97.454192  -29082.404398    -112.952646
    111000      288.691911   92962.774766       0.620497  -28941.607332  -29835.703975     265.682106     309.539302     103.919626  -18483.611326  -11924.694856    -106.538827  -29119.541786    -131.242678
    112000      295.002641   92962.774766       0.620497  -28969.171891  -29882.813256     242.936369     294.119269     113.636037  -18534.327504  -11926.748025     -72.429402  -28681.611364     212.101776
    113000      303.756732   92962.774766       0.620497  -28910.020140  -29850.773464     268.931164     295.579016     119.498530  -18569.664446  -11924.445097     -40.672631  -29279.700679    -272.672677
    114000      288.565361   92962.774766       0.620497  -28981.917361  -29875.622071     257.552551     295.374831     106.652250  -18522.055554  -11925.589591     -87.556558  -29354.680648    -274.946481
    115000      305.544520   92962.774766       0.620497  -28927.199147  -29873.489358     248.402141     302.784107     102.712665  -18563.295573  -11925.415268     -38.677430  -28684.428491     179.065213
    116000      303.273914   92962.774766       0.620497  -28935.753078  -29875.011083     262.935545     305.003329     105.456359  -18520.822794  -11926.229550    -101.353972  -29219.118667    -209.007630
    117000      296.923269   92962.774766       0.620497  -28928.936965  -29848.526632     262.604992     298.035883     130.152956  -18582.566429  -11924.662744     -32.091290  -28850.642772      57.749016
    118000      296.870693   92962.774766       0.620497  -28945.847155  -29865.273990     251.780424     312.311859     112.697095  -18571.716042  -11925.012187     -45.335139  -28740.675551     151.332527
    119000      284.626527   92962.774766       0.620497  -29009.797180  -29891.303079     263.456142     263.420752     104.955745  -18489.549413  -11924.276289    -109.310015  -29157.161416    -108.694390
    120000      298.158436   92962.774766       0.620497  -28938.967076  -29862.382131     253.393435     282.684684     121.865006  -18538.513680  -11924.583700     -57.227875  -28924.808541      10.443194
    121000      283.904783   92962.774766       0.620497  -28941.325357  -29820.595970     286.529767     299.529009     108.087325  -18607.378123  -11923.438448      16.074499  -29368.666292    -315.202409
    122000      293.752564   92962.774766       0.620497  -28981.086925  -29890.856724     249.686229     280.352209      98.012628  -18520.015178  -11923.980035     -74.912577  -29415.556316    -320.460288
    123000      296.867051   92962.774766       0.620497  -28940.187078  -29859.602633     247.624803     305.917068     106.314027  -18534.728615  -11924.478459     -60.251458  -29520.535499    -428.059204
    124000      315.888694   92962.774766       0.620497  -28861.013364  -29839.340121     257.709414     297.933187     129.944439  -18522.495896  -11928.178213     -74.253053  -28519.907084     251.596588
    125000      305.216402   92962.774766       0.620497  -28930.005635  -29875.279646     235.693634     303.274606     119.968196  -18622.342727  -11924.046172      12.172817  -28159.764214     568.122386
    126000      294.687746   92962.774766       0.620497  -29013.660035  -29926.326148     230.826988     287.846633      88.224558  -18517.463448  -11924.670091     -91.090788  -29237.102652    -164.809045
    127000      306.491998   92962.774766       0.620497  -28929.993195  -29879.217807     254.331051     289.227733     104.231869  -18522.187508  -11926.221923     -78.599029  -28896.148277      24.963674
    128000      302.876728   92962.774766       0.620497  -28897.900649  -29835.928546     253.468187     296.432317     131.152167  -18550.937409  -11924.322304     -41.721503  -28897.649591       0.185178
    129000      286.324702   92962.774766       0.620497  -28966.324881  -29853.090133     258.696827     302.295377     103.135692  -18551.963280  -11925.390122     -39.864626  -28632.868069     245.954417
    130000      291.055881   92962.774766       0.620497  -28947.612254  -29849.030259     263.359843     302.653469     119.521077  -18476.171712  -11926.047485    -132.345451  -29314.155902    -270.358937
    131000      301.531143   92962.774766       0.620497  -28941.131569  -29874.992104     237.509406     305.495520     108.829675  -18493.769485  -11924.921788    -108.135432  -29244.352822    -223.652971
    132000      282.243756   92962.774766       0.620497  -29032.098330  -29906.224640     259.528193     280.617961      96.771011  -18527.382765  -11927.461209     -88.297830  -29254.839507    -164.291669
    133000      299.190737   92962.774766       0.620497  -28927.649692  -29854.261845     253.261003     290.275674     120.661927  -18478.029375  -11926.753831    -113.677244  -28548.155731     279.910958
    134000      307.561266   92962.774766       0.620497  -28955.205371  -29907.741571     227.379483     271.258900     138.037640  -18524.438527  -11926.704884     -93.274184  -29160.407519    -151.355057
    135000      303.613745   92962.774766       0.620497  -28929.813567  -29870.124051     253.116395     290.777597     112.683428  -18572.540559  -11922.939204     -31.221708  -29075.893949    -107.747432
    136000      286.801223   92962.774766       0.620497  -28933.863576  -29822.104643     274.012229     296.565328     114.774489  -18561.825299  -11923.454492     -22.176898  -29041.372065     -79.297189
    137000      298.304855   92962.774766       0.620497  -28923.606608  -29847.475133     255.217301     307.181714     120.713821  -18556.389914  -11923.899582     -50.298472  -29436.608970    -378.385423
    138000      287.506812   92962.774766       0.620497  -28998.791643  -29889.217963     243.025315     317.094757     101.798561  -18550.745336  -11925.595184     -74.796077  -28963.811248      25.801190
    139000      292.736367   92962.774766       0.620497  -28955.891598  -29862.514171     262.828627     304.135371     106.308152  -18557.773882  -11924.599351     -53.413088  -28997.335908     -30.568909
    140000      295.828031   92962.774766       0.620497  -28968.260546  -29884.458194     247.484802     301.926218      97.345772  -18522.994761  -11922.147256     -86.072969  -29431.690728    -341.821478
    141000      298.395117   92962.774766       0.620497  -29018.096080  -29942.244151     244.804563     282.286739     101.681447  -18514.563896  -11925.865772    -130.587233  -29314.429521    -218.572589
    142000      290.621091   92962.774766       0.620497  -28974.553115  -29874.624550     256.024098     292.436751     100.322167  -18585.489671  -11924.168973     -13.748922  -28809.875990     121.464204
    143000      297.111508   92962.774766       0.620497  -28960.159483  -29880.332137     242.952818     296.461837     106.646636  -18533.361494  -11922.798560     -70.233375  -28546.816679     304.877528
    144000      301.952852   92962.774766       0.620497  -28905.805434  -29840.972029     256.957716     311.712192     117.894866  -18521.090707  -11924.444404     -82.001691  -29298.116171    -289.364484
    145000      291.549409   92962.774766       0.620497  -28939.498353  -29842.444843     260.346656     296.890840     114.818152  -18513.786216  -11925.329668     -75.384607  -29382.801723    -326.976142
    146000      291.934073   92962.774766       0.620497  -29004.694958  -29908.832778     238.347599     268.993287     106.958994  -18560.049022  -11925.194538     -37.889098  -28774.144767     170.051521
    147000      308.368697   92962.774766       0.620497  -28964.652750  -29919.689614     255.097560     277.650635     107.295162  -18558.414056  -11925.085204     -76.233710  -28901.853034      46.320444
    148000      302.921336   92962.774766       0.620497  -28946.082818  -29884.248869     255.789687     309.101903     108.434999  -18545.656867  -11927.051032     -84.867559  -28843.647167      75.555514
    149000      287.074638   92962.774766       0.620497  -28993.736936  -29882.824785     243.624413     296.624555     104.816254  -18492.956812  -11923.470694    -111.462500  -28850.918747     105.341271
    150000      304.879182   92962.774766       0.620497  -28953.295445  -29897.525064     242.760060     285.958925     117.185898  -18583.485268  -11925.866045     -34.078634  -28520.312291     319.364053
    151000      292.823236   92962.774766       0.620497  -28962.222095  -29869.113708     230.752566     303.562886     115.096546  -18520.409227  -11924.347822     -73.768657  -29090.115050     -94.332567
    152000      284.205787   92962.774766       0.620497  -28976.081733  -29856.284576     257.507068     291.046903     107.231324  -18448.098244  -11926.328214    -137.643414  -29601.608198    -461.382078
    153000      299.436861   92962.774766       0.620497  -28961.320481  -29888.694898     244.722425     297.434801     104.389539  -18544.651038  -11926.034205     -64.556421  -29379.161573    -308.195421
    154000      307.621567   92962.774766       0.620497  -28905.890532  -29858.613488     247.388180     311.775100     108.786771  -18545.790059  -11924.552995     -56.220486  -28573.608750     245.087727
    155000      296.276738   92962.774766       0.620497  -28945.182149  -29862.769469     249.285109     285.307781     113.731503  -18512.096704  -11925.656846     -73.340313  -28916.431044      21.206528
    156000      299.650421   92962.774766       0.620497  -28909.155810  -29837.191636     258.045388     297.743334     112.541243  -18507.152586  -11925.583092     -72.785923  -29168.402197    -191.217548
    157000      304.729368   92962.774766       0.620497  -28937.976943  -29881.742579     256.507079     270.914476     111.684910  -18493.953027  -11921.750512    -105.145506  -29272.755055    -246.928995
    158000      296.800405   92962.774766       0.620497  -28932.124842  -29851.333991     263.852605     288.571900     117.307414  -18531.529363  -11924.260642     -65.275904  -28961.979498     -22.020497
    159000      301.127280   92962.774766       0.620497  -28936.093159  -29868.702906     235.987358     294.766393     122.224911  -18530.424578  -11925.337515     -65.919475  -28860.567978      55.706619
    160000      297.155823   92962.774766       0.620497  -28920.392437  -29840.702337     272.154320     281.773526     111.783884  -18565.834814  -11924.221773     -16.357480  -28932.677403      -9.061268
    161000      301.161673   92962.774766       0.620497  -28917.130726  -29849.846992     254.939597     297.935341     120.960303  -18510.241283  -11925.254932     -88.186019  -29167.510898    -184.677917
    162000      294.829091   92962.774766       0.620497  -28959.714349  -29872.818218     239.065956     290.580072     116.427482  -18497.673023  -11923.299470     -97.919235  -29161.995314    -149.200421
    163000      307.414108   92962.774766       0.620497  -28895.193798  -29847.274240     251.908919     296.468127     110.150896  -18540.413197  -11922.594766     -42.794217  -28626.087717     198.489960
    164000      289.589891   92962.774766       0.620497  -28962.367274  -29859.245018     265.220355     305.267317     104.169811  -18486.844228  -11924.793792    -122.264481  -29674.004804    -524.896741
    165000      307.050386   92962.774766       0.620497  -28954.581421  -29905.535394     234.599788     294.920355     121.864331  -18572.824557  -11927.000955     -57.094355  -29003.211421     -35.869003
    166000      297.714388   92962.774766       0.620497  -28953.203029  -29875.242842     254.667882     287.214717     124.387918  -18558.120686  -11925.898159     -57.494514  -28907.832512      33.464840
    167000      296.116517   92962.774766       0.620497  -28904.880566  -29821.971672     268.634185     311.716391     119.711995  -18481.714173  -11926.898221    -113.421848  -29512.382146    -448.087103
    168000      304.751064   92962.774766       0.620497  -28920.774272  -29864.607103     252.247088     290.421053     108.878702  -18486.374245  -11925.903772    -103.875930  -29043.559225     -90.564956
    169000      294.148546   92962.774766       0.620497  -28980.976301  -29891.972479     246.152037     267.607851     110.880412  -18558.365150  -11927.361097     -30.886532  -28668.772955     230.278073
    170000      309.468892   92962.774766       0.620497  -28920.490285  -29878.934520     258.571651     256.655398     115.958789  -18486.067081  -11924.979585     -99.073693  -28967.488112     -34.665128
    171000      299.420035   92962.774766       0.620497  -28960.793803  -29888.116110     236.642785     276.156651     111.665308  -18519.634376  -11924.991914     -67.954562  -28991.896836     -22.941286
    172000      300.061958   92962.774766       0.620497  -28956.255937  -29885.566316     245.736979     286.897272     111.318688  -18597.201361  -11923.121579      -9.196314  -28838.079827      87.165519
    173000      291.877702   92962.774766       0.620497  -29010.717023  -29914.680258     250.826357     271.143641     104.935444  -18497.171731  -11927.165917    -117.248052  -29822.246534    -598.576070
    174000      286.070687   92962.774766       0.620497  -28985.040191  -29871.018742     237.947214     302.336673     112.105704  -18505.616397  -11925.714543     -92.077392  -29049.529435     -47.566622
    175000      296.801941   92962.774766       0.620497  -28954.258652  -29873.472559     242.174786     297.526410     113.987392  -18545.495052  -11927.003006     -54.663089  -28877.500160      56.616298
    176000      305.374186   92962.774766       0.620497  -28926.693584  -29872.456260     249.052704     312.048472     123.870183  -18563.446666  -11927.380817     -66.600137  -29026.219481     -73.409309
    177000      292.799932   92962.774766       0.620497  -28946.716056  -29853.535492     253.423892     291.556607     116.694431  -18526.407649  -11925.095651     -63.707122  -28778.795899     123.856232
    178000      299.583550   92962.774766       0.620497  -28992.837479  -29920.666201     233.314938     294.640892     116.502384  -18575.964211  -11924.595689     -64.564515  -29148.189474    -114.586081
    179000      297.429439   92962.774766       0.620497  -28963.033375  -29884.190682     250.800099     298.093429     112.683499  -18542.577858  -11924.193384     -78.996468  -29500.602430    -396.505570
    180000      306.613564   92962.774766       0.620497  -28893.882528  -29843.483635     235.392251     305.269405     134.312588  -18562.283573  -11924.253774     -31.920532  -28757.222515     100.799062
    181000      296.818690   92962.774766       0.620497  -28974.562590  -29893.828369     252.175286     286.027783     115.749180  -18566.964508  -11921.571640     -59.244470  -29101.426363     -93.573453
    182000      294.006481   92962.774766       0.620497  -28976.485538  -29887.041732     251.909633     298.503695     115.637408  -18564.830435  -11923.083129     -65.178904  -29278.623280    -222.853783
    183000      296.328740   92962.774766       0.620497  -28914.749990  -29832.498364     280.402223     305.395944     114.809524  -18557.352458  -11923.516015     -52.237582  -29033.537239     -87.616289
    184000      302.927875   92962.774766       0.620497  -28913.116937  -29851.303238     235.160785     296.657924     123.842983  -18509.926320  -11922.415559     -74.623050  -29046.129879     -98.109018
    185000      285.178068   92962.774766       0.620497  -28980.337331  -29863.551386     254.701294     300.499056     108.024492  -18600.056015  -11922.064807      -4.655406  -28633.075314     256.136999
    186000      288.919102   92962.774766       0.620497  -28971.879840  -29866.680107     236.327868     305.771751     127.641322  -18572.795212  -11924.480444     -39.145392  -28866.054238      78.055908
    187000      295.600134   92962.774766       0.620497  -28931.176252  -29846.668088     259.007276     296.154437     126.337410  -18484.689825  -11923.712314    -119.765072  -29586.130654    -483.087831
    188000      291.789687   92962.774766       0.620497  -29002.101531  -29905.792177     242.959657     291.270688     106.892351  -18517.962649  -11922.315634    -106.636590  -29084.109492     -60.488254
    189000      302.608045   92962.774766       0.620497  -28920.094162  -29857.289932     252.476524     282.228638     121.737933  -18570.536127  -11925.965325     -17.231575  -28540.183429     280.218366
    190000      299.489325   92962.774766       0.620497  -28969.953429  -29897.490330     216.242585     310.166823     102.288128  -18546.281318  -11927.024279     -52.882268  -28714.680321     188.286898
    191000      295.339892   92962.774766       0.620497  -28920.250778  -29834.936628     235.340568     312.156054     128.347355  -18507.992184  -11924.921439     -77.866982  -29173.535222    -186.820078
    192000      294.485008   92962.774766       0.620497  -28947.857113  -29859.895336     235.065027     305.314113     114.964327  -18530.040267  -11925.113819     -60.084717  -29318.338650    -273.263485
    193000      306.548128   92962.774766       0.620497  -28924.206669  -29873.605118     216.640368     297.476132     116.068197  -18575.562298  -11925.455087      -2.772429  -28603.473040     236.569924
    194000      306.979524   92962.774766       0.620497  -28931.690672  -29882.425180     239.633463     298.691740     115.895844  -18499.485502  -11927.002383    -110.158341  -28550.293146     281.315009
    195000      302.710591   92962.774766       0.620497  -28956.404480  -29893.917838     243.313859     305.551513     107.309050  -18482.394116  -11926.857467    -140.840678  -29602.488291    -476.544972
    196000      300.585617   92962.774766       0.620497  -28906.342297  -29837.274482     253.677188     302.688495     133.601332  -18558.763546  -11925.982997     -42.494955  -29190.104205    -209.299952
    197000      292.397522   92962.774766       0.620497  -28940.230377  -29845.803525     231.720145     334.548870     113.693615  -18593.807250  -11922.681538      -9.277368  -28773.136413     123.246840
    198000      288.790854   92962.774766       0.620497  -28959.212954  -29853.616030     237.565557     319.123208     112.359564  -18558.411025  -11925.179451     -39.073884  -28745.967733     157.287547
    199000      295.472087   92962.774766       0.620497  -28923.864197  -29838.959463     254.134539     321.016688     122.207792  -18509.400295  -11924.618779    -102.299406  -28982.334633     -43.127210
    200000      287.777261   92962.774766       0.620497  -28985.221770  -29876.485687     232.867948     316.418472     111.546031  -18599.093429  -11927.064936     -11.159773  -28556.965045     315.877887
    201000      288.961804   92962.774766       0.620497  -28985.212198  -29880.144717     253.151981     306.917341     101.049446  -18537.308090  -11924.348963     -79.606432  -29491.223409    -373.228819
    202000      305.433379   92962.774766       0.620497  -28896.102525  -29842.048527     258.761312     303.436436     105.172842  -18543.242250  -11923.794044     -42.382823  -28886.193413       7.308862
    203000      297.236581   92962.774766       0.620497  -28977.876403  -29898.436416     235.941008     317.560403     107.742434  -18573.071085  -11924.350848     -62.258327  -28939.621093      28.216735
    204000      292.693075   92962.774766       0.620497  -28942.936333  -29849.424830     250.675578     322.995940     134.022071  -18555.465728  -11926.956668     -74.696023  -28847.535553      70.366664
    205000      296.647733   92962.774766       0.620497  -28997.736222  -29916.472537     233.707554     298.823227     102.103150  -18513.589584  -11925.674279    -111.842605  -29030.144075     -23.903709
    206000      304.338413   92962.774766       0.620497  -28948.285741  -29890.840565     242.982753     296.137421     112.495530  -18609.710609  -11922.486675     -10.258986  -29027.375440     -58.335773
    207000      286.599572   92962.774766       0.620497  -28941.595491  -29829.212033     274.833244     301.603215     119.915062  -18564.044574  -11924.958706     -36.560275  -29205.117885    -194.371488
    208000      294.808217   92962.774766       0.620497  -28980.194777  -29893.233997     260.963170     312.260437     107.624166  -18530.109453  -11924.885803    -119.086513  -29385.385933    -298.864953
    209000      310.978877   92962.774766       0.620497  -28904.212066  -29867.332815     257.191916     290.930775     127.494887  -18597.773957  -11923.884855     -21.291581  -28525.824198     279.095115
    210000      286.476429   92962.774766       0.620497  -28966.867216  -29854.102375     262.142190     289.375010     108.709754  -18539.350659  -11921.520980     -53.457690  -28968.430527      -1.153083
Loop time of 176.823 on 128 procs for 100000 steps with 1040 atoms

Performance: 48.863 ns/day, 0.491 hours/ns, 565.539 timesteps/s
99.6% CPU use with 128 MPI tasks x 1 OpenMP threads

MPI task timing breakdown:
Section |  min time  |  avg time  |  max time  |%varavg| %total
---------------------------------------------------------------
Pair    | 0.020433   | 21.382     | 139.65     | 873.8 | 12.09
Bond    | 0.008928   | 0.52058    | 2.8296     | 125.7 |  0.29
Kspace  | 17.148     | 140.04     | 163.62     | 361.7 | 79.20
Neigh   | 3.3351     | 3.5928     | 3.7491     |   7.9 |  2.03
Comm    | 0.045778   | 1.8217     | 5.6412     | 149.0 |  1.03
Output  | 0.079957   | 0.080234   | 0.10672    |   0.8 |  0.05
Modify  | 8.751      | 8.8401     | 8.9291     |   1.4 |  5.00
Other   |            | 0.5484     |            |       |  0.31

Nlocal:          8.125 ave          42 max           0 min
Histogram: 96 0 0 0 0 8 4 4 3 13
Nghost:        912.852 ave        3145 max           0 min
Histogram: 64 16 0 0 16 0 0 16 0 16
Neighs:              0 ave           0 max           0 min
Histogram: 128 0 0 0 0 0 0 0 0 0

Total # of neighbors = 0
Ave neighs/atom = 0
Ave special neighs/atom = 6.8923077
Neighbor list builds = 2520
Dangerous builds = 0
System init for write_restart ...
PPPM initialization ...
  using 12-bit tables for long-range coulomb (src/src/kspace.cpp:342)
  G vector (1/distance) = 0.16057227
  grid = 8 30 8
  stencil order = 5
  estimated absolute RMS force accuracy = 0.029640736
  estimated relative force accuracy = 8.9262195e-05
  using double precision FFTW3
  3d grid and FFT values/proc = 504 16
Generated 0 of 78 mixed pair_coeff terms from arithmetic mixing rule
System init for write_data ...
PPPM initialization ...
  using 12-bit tables for long-range coulomb (src/src/kspace.cpp:342)
  G vector (1/distance) = 0.16057227
  grid = 8 30 8
  stencil order = 5
  estimated absolute RMS force accuracy = 0.029640736
  estimated relative force accuracy = 8.9262195e-05
  using double precision FFTW3
  3d grid and FFT values/proc = 504 16
Generated 0 of 78 mixed pair_coeff terms from arithmetic mixing rule
Total wall time: 0:06:17
