9
Coordinates from ORCA-job orca Relaxed Surface Scan Step 3 E -576.764268359044
  C       0.939981      0.067268     -0.008844
  Cl      2.034412     -0.565517      0.764195
  H       0.931193     -0.174760     -1.074966
  H       0.906304      1.158380      0.051441
  H      -0.042760     -0.252108      0.347561
  O       4.670486      0.195036     -0.068032
  H       3.660799     -0.029900      0.172109
  H       4.938161     -0.094917     -0.958552
  H       4.915424      1.124528      0.089438
