9
Coordinates from ORCA-job orca Relaxed Surface Scan Step 45 E -576.701609151012
  C      -1.830260      0.402665     -0.438884
  Cl      4.064561     -1.079885      0.702433
  H      -1.801364     -0.458946     -1.106038
  H      -1.825654      1.411809     -0.850801
  H      -1.861423      0.254397      0.640656
  O       6.643195      0.494172     -0.059018
  H       5.138329     -0.410719      0.377617
  H       7.251642      0.023679     -0.639075
  H       7.174975      0.790839      0.687461
