9
Coordinates from ORCA-job orca Relaxed Surface Scan Step 19 E -576.723814398421
  C      -0.014428      0.325675     -0.289054
  Cl      2.953681     -1.342728      0.659769
  H      -0.251444     -0.502713     -0.951827
  H       0.529629      1.186723     -0.668141
  H      -0.341300      0.302255      0.747414
  O       5.008249      0.617334     -0.166863
  H       3.892735     -0.460528      0.287893
  H       5.624922      0.320298     -0.847171
  H       5.551956      0.981694      0.542330
