9
Coordinates from ORCA-job orca Relaxed Surface Scan Step 23 E -576.715188294223
  C      -0.279263      0.347484     -0.312357
  Cl      3.132507     -1.373211      0.657607
  H      -0.503144     -0.508607     -0.945793
  H       0.217464      1.219827     -0.731940
  H      -0.557591      0.332945      0.739574
  O       5.238543      0.620386     -0.146407
  H       4.065132     -0.498398      0.304485
  H       5.858271      0.323016     -0.823004
  H       5.782081      0.964568      0.572184
