9
Coordinates from ORCA-job orca Relaxed Surface Scan Step 7 E -576.790762477400
  C       0.532175      0.204083     -0.181103
  Cl      2.372006     -0.686984      0.897893
  H       0.716648     -0.181029     -1.172987
  H       0.712042      1.250947      0.013518
  H      -0.203628     -0.302214      0.427416
  O       4.847577      0.189609     -0.055079
  H       3.822999     -0.091070      0.244068
  H       5.088065     -0.079180     -0.957215
  H       5.066115      1.123848      0.097838
