9
Coordinates from ORCA-job orca Relaxed Surface Scan Step 8 E -576.781743432447
  C       0.472712      0.216317     -0.197153
  Cl      2.420363     -0.694877      0.898830
  H       0.664106     -0.182307     -1.182629
  H       0.670067      1.259871     -0.000471
  H      -0.225561     -0.304846      0.442607
  O       4.882148      0.187869     -0.051133
  H       3.846896     -0.100534      0.253358
  H       5.122414     -0.074380     -0.954698
  H       5.100855      1.120896      0.105638
