9
Coordinates from ORCA-job orca Relaxed Surface Scan Step 22 E -576.716956614895
  C      -0.209024      0.343092     -0.306923
  Cl      3.087998     -1.370710      0.663172
  H      -0.435615     -0.504635     -0.950122
  H       0.302264      1.212986     -0.713189
  H      -0.501751      0.323897      0.740751
  O       5.176050      0.620255     -0.153183
  H       4.019306     -0.493143      0.303194
  H       5.795110      0.323816     -0.830965
  H       5.719662      0.972452      0.561615
