9
Coordinates from ORCA-job orca Relaxed Surface Scan Step 37 E -576.703834098917
  C      -1.276945      0.390900     -0.382151
  Cl      3.738945     -1.287023      0.542002
  H      -1.428173     -0.562729     -0.887780
  H      -1.047265      1.284830     -0.961618
  H      -1.352599      0.449382      0.703591
  O       6.138769      0.581847     -0.034796
  H       4.747583     -0.489614      0.295253
  H       6.759782      0.253770     -0.694504
  H       6.673903      0.806646      0.734352
