9
Coordinates from ORCA-job orca Relaxed Surface Scan Step 12 E -576.753435080207
  C       0.324598      0.246830     -0.237274
  Cl      2.649482     -0.865280      0.910348
  H       0.466022     -0.280793     -1.172624
  H       0.668666      1.268302     -0.131849
  H      -0.283460     -0.196709      0.542264
  O       4.750093      0.494915     -0.317828
  H       3.739873     -0.142127      0.263115
  H       5.325852     -0.080511     -0.842188
  H       5.312874      0.983383      0.300386
