9
Coordinates from ORCA-job orca Relaxed Surface Scan Step 49 E -576.700845825283
  C      -2.089622      0.412087     -0.463449
  Cl      4.233856     -1.014958      0.734751
  H      -2.013635     -0.413684     -1.171036
  H      -2.197069      1.434062     -0.827082
  H      -2.055749      0.215097      0.608215
  O       6.871577      0.460149     -0.052399
  H       5.328846     -0.388305      0.399755
  H       7.474963     -0.050102     -0.603290
  H       7.400833      0.773662      0.688885
