9
Coordinates from ORCA-job orca Relaxed Surface Scan Step 9 E -576.773104179079
  C       0.415434      0.227748     -0.211950
  Cl      2.469636     -0.703126      0.902000
  H       0.613747     -0.182687     -1.191705
  H       0.627299      1.268600     -0.013523
  H      -0.247690     -0.306675      0.454468
  O       4.916127      0.186725     -0.048300
  H       3.866928     -0.111747      0.264823
  H       5.156556     -0.069170     -0.952993
  H       5.135963      1.118341      0.111530
