9
Coordinates from ORCA-job orca Relaxed Surface Scan Step 4 E -576.689704955794
  C       0.976070      0.049518      0.013081
  Cl      2.002806     -0.528228      0.717640
  H       0.918422     -0.171391     -1.062753
  H       0.894196      1.145560      0.052284
  H      -0.022124     -0.257833      0.354528
  O       4.666245      0.192598     -0.064306
  H       3.645432     -0.016442      0.155304
  H       4.949373     -0.103912     -0.947822
  H       4.923581      1.118138      0.096393
