9
Coordinates from ORCA-job orca Relaxed Surface Scan Step 53 E -576.700219450390
  C      -2.346315      0.425111     -0.479195
  Cl      4.408696     -1.006999      0.669230
  H      -2.286819     -0.436069     -1.144941
  H      -2.524594      1.419596     -0.888398
  H      -2.225373      0.291191      0.595938
  O       7.094252      0.450281     -0.006943
  H       5.520736     -0.389061      0.381129
  H       7.698061     -0.046912     -0.569060
  H       7.615358      0.720872      0.756590
