9
Coordinates from ORCA-job orca Relaxed Surface Scan Step 11 E -576.757523427364
  C       0.322248      0.248427     -0.237977
  Cl      2.571792     -0.745329      0.922289
  H       0.523614     -0.192009     -1.205445
  H       0.567971      1.284890     -0.049024
  H      -0.290865     -0.289942      0.473694
  O       4.969408      0.194647     -0.053001
  H       3.869278     -0.150006      0.299555
  H       5.218961     -0.041006     -0.958655
  H       5.201593      1.118337      0.122913
