9
Coordinates from ORCA-job orca Relaxed Surface Scan Step 6 E -576.322679662518
  C       1.054676      0.016117      0.054277
  Cl      1.950189     -0.445149      0.618426
  H       0.877769     -0.169280     -1.039780
  H       0.853818      1.121677      0.053662
  H       0.022506     -0.273120      0.373367
  O       4.660187      0.185699     -0.056175
  H       3.606265      0.015822      0.116209
  H       4.977569     -0.122152     -0.923601
  H       4.951020      1.098396      0.117967
