9
Coordinates from ORCA-job orca Relaxed Surface Scan Step 14 E -576.742492670782
  C       0.257805      0.279829     -0.253100
  Cl      2.738871     -1.232944      0.587409
  H      -0.020430     -0.530742     -0.918191
  H       0.817867      1.126006     -0.635789
  H      -0.096015      0.284294      0.772364
  O       4.788986      0.607300     -0.170183
  H       3.735436     -0.340927      0.219913
  H       5.403376      0.287909     -0.844338
  H       5.328104      0.947287      0.556266
