9
Coordinates from ORCA-job orca Relaxed Surface Scan Step 52 E -576.700365325744
  C      -2.282980      0.421458     -0.475813
  Cl      4.364413     -1.003703      0.692323
  H      -2.213724     -0.425263     -1.158929
  H      -2.446220      1.425820     -0.866764
  H      -2.186788      0.263179      0.598503
  O       7.039960      0.450787     -0.021359
  H       5.472895     -0.386468      0.388376
  H       7.643089     -0.054456     -0.577021
  H       7.563353      0.736656      0.735033
