9
Coordinates from ORCA-job orca Relaxed Surface Scan Step 16 E -576.733710213225
  C       0.157993      0.300818     -0.268134
  Cl      2.823063     -1.288458      0.624642
  H      -0.101719     -0.515280     -0.935623
  H       0.721010      1.149777     -0.643284
  H      -0.188361      0.291948      0.760917
  O       4.866055      0.615063     -0.172633
  H       3.786118     -0.400477      0.252924
  H       5.482220      0.305781     -0.848921
  H       5.407621      0.968838      0.544463
