9
Coordinates from ORCA-job orca Relaxed Surface Scan Step 33 E -576.705590044860
  C      -0.988988      0.380937     -0.362658
  Cl      3.569585     -1.333561      0.584325
  H      -1.171242     -0.545153     -0.907296
  H      -0.658702      1.271371     -0.896700
  H      -1.134299      0.415048      0.716789
  O       5.876298      0.600379     -0.071565
  H       4.547588     -0.505844      0.302891
  H       6.498888      0.281964     -0.734776
  H       6.414873      0.862869      0.683338
