9
Coordinates from ORCA-job orca Relaxed Surface Scan Step 5 E -576.555650497114
  C       1.014403      0.032427      0.034093
  Cl      1.974853     -0.487628      0.669589
  H       0.901476     -0.169973     -1.050692
  H       0.877383      1.133051      0.051946
  H       0.000146     -0.264605      0.363120
  O       4.662229      0.189255     -0.060665
  H       3.626734     -0.001444      0.137298
  H       4.961066     -0.111839     -0.937259
  H       4.935710      1.108766      0.106921
