51
	Energy:      60.6154238
C         -2.59427       -2.27064        0.34610
O         -3.30395       -1.32253        0.64406
N         -3.15469       -3.47986       -0.01128
N         -1.21938       -2.14947        0.36178
N         -2.36312       -4.50231       -0.33323
N         -0.46173       -3.19580        0.03276
C         -1.01281       -4.38347       -0.32008
C         -4.60239       -3.69807       -0.05522
H         -5.17693       -2.79143        0.22781
H         -4.87561       -4.51462        0.64602
H         -4.90187       -3.99111       -1.08365
C         -0.54147       -0.90415        0.72872
C          5.27726       -2.81944        5.64746
O          5.11737       -1.85821        6.38451
N          4.73716       -4.04494        5.96957
N          6.00097       -2.69398        4.48251
N          4.92238       -5.08449        5.15522
N          6.16560       -3.75272        3.68943
C          3.96003       -4.23335        7.19405
C          6.59938       -1.41761        4.09321
C         -0.45088       -6.01112       -2.11870
C         -0.14999       -5.56239       -0.68919
O          1.22605       -5.22273       -0.61615
C          3.27639       -5.32733        0.60993
O          3.82866       -5.70775        1.85331
C          5.22314       -5.89278        1.72221
C          5.83707       -6.14237        3.10546
O          7.21462       -6.38072        2.98328
C          5.63329       -4.95922        4.00741
H          7.32086       -1.08668        4.87027
H          5.80644       -0.64904        3.97492
H          3.60919       -5.28447        7.27948
H          3.07247       -3.56559        7.18404
H         -1.25449       -0.09288        0.98545
H          0.08449       -0.55883       -0.12094
H          0.11137       -1.08309        1.60891
H          5.71098       -4.99770        1.26910
H          5.42487       -6.79022        1.09416
H          0.17764       -6.89027       -2.37548
H         -1.51794       -6.30301       -2.22266
H          5.34186       -7.02908        3.56833
H         -0.41800       -6.41859       -0.02429
C          1.77811       -5.60394        0.62768
H          3.70536       -5.91515       -0.23665
H          3.44573       -4.24071        0.44053
H          1.64853       -6.69710        0.80237
H          1.31521       -5.01884        1.45419
H          7.14216       -1.51590        3.12823
H          4.58797       -3.99838        8.07961
H          7.31964       -7.32327        2.68884
H         -0.22839       -5.19226       -2.83650
