
                                 *****************
                                 * O   R   C   A *
                                 *****************

                                            #,                                       
                                            ###                                      
                                            ####                                     
                                            #####                                    
                                            ######                                   
                                           ########,                                 
                                     ,,################,,,,,                         
                               ,,#################################,,                 
                          ,,##########################################,,             
                       ,#########################################, ''#####,          
                    ,#############################################,,   '####,        
                  ,##################################################,,,,####,       
                ,###########''''           ''''###############################       
              ,#####''   ,,,,##########,,,,          '''####'''          '####       
            ,##' ,,,,###########################,,,                        '##       
           ' ,,###''''                  '''############,,,                           
         ,,##''                                '''############,,,,        ,,,,,,###''
      ,#''                                            '''#######################'''  
     '                                                          ''''####''''         
             ,#######,   #######,   ,#######,      ##                                
            ,#'     '#,  ##    ##  ,#'     '#,    #''#        ,####,   ,####,        
            ##       ##  ##   ,#'  ##            #'  '#       #'       #'  '#        
            ##       ##  #######   ##           ,######,      #####,   #    #        
            '#,     ,#'  ##    ##  '#,     ,#' ,#      #,     #,   #   #,  ,#        
             '#######'   ##     ##  '#######'  #'      '#     '####' # '####'        



                #########################################################
                #                        -***-                          #
                #          Department of theory and spectroscopy        #
                #                                                       #
                #                      Frank Neese                      #
                #                                                       #
                #     Directorship, Architecture, Infrastructure        #
                #                    SHARK, DRIVERS                     #
                #        Core code/Algorithms in most modules           #
                #                                                       #
                #        Max Planck Institute fuer Kohlenforschung      #
                #                Kaiser Wilhelm Platz 1                 #
                #                 D-45470 Muelheim/Ruhr                 #
                #                      Germany                          #
                #                                                       #
                #                  All rights reserved                  #
                #                        -***-                          #
                #########################################################


                         Program Version 6.0.1  -  RELEASE   -


 With contributions from (in alphabetic order):
[Max-Planck-Institut fuer Kohlenforschung]                               
  Daniel Aravena         : Magnetic Suceptibility                        
  Michael Atanasov       : Ab Initio Ligand Field Theory (pilot matlab implementation)
  Alexander A. Auer      : GIAO ZORA, VPT2 properties, NMR spectrum      
  Ute Becker             : All parallelization in ORCA, NUMFREQ, NUMCALC 
  Giovanni Bistoni       : ED, misc. LED, open-shell LED, HFLD           
  Martin Brehm           : Molecular dynamics                            
  Dmytro Bykov           : pre 5.0 version of the SCF Hessian            
  Marcos Casanova-Páez   : Triplet and SCS-CIS(D). UHF-(DLPNO)-IP/EA/STEOM-CCSD. UHF-CVS-IP/STEOM-CCSD   
  Vijay G. Chilkuri      : MRCI spin determinant printing, contributions to CSF-ICE 
  Pauline Colinet        : FMM embedding                                 
  Dipayan Datta          : RHF DLPNO-CCSD density                        
  Achintya Kumar Dutta   : EOM-CC, STEOM-CC                              
  Nicolas Foglia         : Exact transition moments, OPA infrastructure, MCD improvements    
  Dmitry Ganyushin       : Spin-Orbit,Spin-Spin,Magnetic field MRCI      
  Miquel Garcia-Rates    : C-PCM and meta-GGA Hessian, CCSD/C-PCM, Gaussian charge scheme 
  Tiago L. C. Gouveia    : GS-ROHF, GS-ROCIS                             
  Yang Guo               : DLPNO-NEVPT2, F12-NEVPT2, CIM, IAO-localization        
  Andreas Hansen         : Spin unrestricted coupled pair/coupled cluster methods 
  Ingolf Harden          : AUTO-CI MPn and infrastructure                
  Benjamin Helmich-Paris : MC-RPA, TRAH-(SCF,CASSCF), AVAS, COSX integrals, SCF dyn. polar. 
  Lee Huntington         : MR-EOM, pCC                                   
  Robert Izsak           : Overlap fitted RIJCOSX, COSX-SCS-MP3, EOM     
  Riya Kayal             : Wick's Theorem for AUTO-CI, AUTO-CI UHF-CCSDT 
  Emily Kempfer          : AUTO-CI, RHF CISDT and CCSDT                  
  Christian Kollmar      : KDIIS, OOCD, Brueckner-CCSD(T), CCSD density, CASPT2, CASPT2-K, improved NEVPT2 
  Axel Koslowski         : Symmetry handling                             
  Simone Kossmann        : meta-GGA functionals, TD-DFT gradient, OOMP2, (MP2 Hessian; deprecated post 5.0) 
  Lucas Lang             : DCDCAS                                        
  Marvin Lechner         : AUTO-CI (C++ implementation), FIC-MRCC        
  Spencer Leger          : CASSCF response                               
  Dagmar Lenk            : GEPOL surface, SMD, ORCA-2-JSON               
  Dimitrios Liakos       : Extrapolation schemes; Compound Job, initial MDCI parallelization 
  Dimitrios Manganas     : Further ROCIS development; embedding schemes. LFT, Crystal Embedding 
  Dimitrios Pantazis     : SARC Basis sets                               
  Anastasios Papadopoulos: AUTO-CI, single reference methods and gradients 
  Taras Petrenko         : pre 6.0 DFT Hessian and TD-DFT gradient, (ASA, deprecated), ECA, 1-Electron XAS/XES, NRVS 
  Peter Pinski           : DLPNO-MP2, DLPNO-MP2 Gradient                 
  Christoph Reimann      : Effective Core Potentials                     
  Marius Retegan         : Local ZFS, SOC                                
  Christoph Riplinger    : Optimizer, TS searches, QM/MM, DLPNO-CCSD(T), (RO)-DLPNO pert. Triples 
  Michael Roemelt        : Original ROCIS implementation                 
  Masaaki Saitow         : Open-shell DLPNO-CCSD energy and density      
  Barbara Sandhoefer     : DKH picture change effects                    
  Kantharuban Sivalingam : CASSCF convergence/infrastructure, NEVPT2 and variants, FIC-MRCI 
  Bernardo de Souza      : ESD, SOC TD-DFT                               
  Georgi L. Stoychev     : AutoAux, RI-MP2 NMR, DLPNO-MP2 response, X2C  
  Van Anh Tran           : RI-MP2 g-tensors                              
  Willem Van den Heuvel  : Paramagnetic NMR                              
  Zikuan Wang            : NOTCH, Electric field optimization            
  Frank Wennmohs         : Technical directorship and infrastructure     
  Hang Xu                : AUTO-CI-Response properties                   
                                                                         
[FACCTs GmbH]                                                            
  Markus Bursch, Miquel Garcia-Rates, Christoph Riplinger, Bernardo de Souza, Georgi L. Stoychev 
                                                                 
  APM, Basis sets (HGBS, AHGBS, def-TZVP (Ac-Lr), def2-XVPD (La-Lu)), CI-OPT, improved COSX, DLPNO-Multilevel,           
  DOCKER, DRACO, updates on ESD, GOAT, IRC, LR-CPCM, MBIS, meta-GGA TD-DFT gradient, ML-optimized integration grids, 
  MM, NACMEs, nearIR, NEB, NEB-TS, NL-DFT gradient (VV10), 2- and 3-layer-ONIOM, interface openCOSMO-RS, QMMM,   
  Crystal-QMMM, SF, symmetry and pop. for TD-DFT, r2SCAN hybrids, SOLVATOR                                   
                                                                         
[Other institutions]                                                     
  V. Asgeirsson          : NEB                                           
  Christoph Bannwarth    : sTDA-DFT, sTD-DFT, PBEh-3c, B97-3c, D3        
  Sebastian Ehlert       : rSCAN, r2SCAN, r2SCAN-3c, D4, dhf basis sets  
  Marvin Friede          : D4 for Fr, Ra, Ac-Lr                          
  Lars Goerigk           : TD-DFT with DH, B97 family of functionals     
  Stefan Grimme          : VdW corrections, initial TS optimization, DFT functionals, gCP, sTDA/sTD-DF 
  Waldemar Hujo          : DFT-NL                                        
  H. Jonsson             : NEB                                           
  Holger Kruse           : gCP                                           
  Marcel Mueller         : wB97X-3c, vDZP basis set                      
  Hagen Neugebauer       : wr2SCAN                                       
  Tobias Risthaus        : range-separated hybrid DFT                    
  Lukas Wittmann         : regularized MP2, r2SCAN double-hybrids, wr2SCAN        
                                                                         
We gratefully acknowledge several colleagues who have allowed us to      
interface, adapt or use parts of their codes:                            
  Ed Valeev, F. Pavosevic, A. Kumar             : LibInt (2-el integral package), F12 methods 
  Garnet Chan, S. Sharma, J. Yang, R. Olivares  : DMRG                   
  Ulf Ekstrom                                   : XCFun DFT Library      
  Mihaly Kallay                                 : mrcc  (arbitrary order and MRCC methods)
  Frank Weinhold                                : gennbo (NPA and NBO analysis)           
  Simon Mueller                                 : openCOSMO-RS                            
  Christopher J. Cramer and Donald G. Truhlar   : smd solvation model                     
  S Lehtola, MJT Oliveira, MAL Marques          : LibXC Library                           
  Liviu Ungur et al                             : ANISO software                          


 Your calculation uses the libint2 library for the computation of 2-el integrals
 For citations please refer to: http://libint.valeyev.net

 Your ORCA version has been built with support for libXC version: 6.2.2
 For citations please refer to: https://libxc.gitlab.io

 This ORCA versions uses:
   CBLAS   interface :  Fast vector & matrix operations
   LAPACKE interface :  Fast linear algebra routines
   SCALAPACK package :  Parallel linear algebra routines
   Shared memory     :  Shared parallel matrices
   BLAS/LAPACK       :  OpenBLAS 0.3.27  USE64BITINT DYNAMIC_ARCH NO_AFFINITY Cooperlake SINGLE_THREADED
        Core in use  :  Cooperlake
   Copyright (c) 2011-2014, The OpenBLAS Project


================================================================================

----- Orbital basis set information -----
Your calculation utilizes the basis: def2-TZVPD
   F. Weigend and R. Ahlrichs, Phys. Chem. Chem. Phys. 7, 3297 (2005).
   D. Rappoport and F. Furche, J. Chem. Phys. 133, 134105 (2010)
   D. Rappoport, J. Chem. Phys. 155, 124102 (2021).

================================================================================
                                        WARNINGS
                       Please study these warnings very carefully!
================================================================================


IMPORTANT NOTE: CASSCF must signal convergence for a subsequent CASPT2/NEVPT2! 
                Set maxiter=1 to run CASPT2/NEVPT2 with arbitrary orbitals.


================================================================================
                                       INPUT FILE
================================================================================
NAME = cas.inp
|  1> ! def2-TZVPD moread PAL8
|  2> 
|  3> %moinp "/temp180/bsavoie2/emille35/mlip_alchemy/diatomic_scan/caspt2/f2/rhf/rhf.gbw"
|  4> 
|  5> %casscf
|  6>     nel = 2
|  7>     norb = 2
|  8>     mult = 1
|  9>     nroots = 1
| 10>     PTMethod FIC_CASPT2
| 11> end
| 12> 
| 13> %paras
| 14>     R = 12.0, 0.8, 112 # start, end, n_steps
| 15> end
| 16> 
| 17> * xyz 0 1
| 18> F 0 0 0
| 19> F {R} 0 0
| 20> *
| 21> 
| 22> # Never forget your bonus lines!!!
| 23> 
| 24>                          ****END OF INPUT****
================================================================================

                       ******************************
                       * Parameter Scan Calculation *
                       ******************************

Trajectory settings:
    -> SCF surface will be mapped
    -> CASPT2 surface(s) will be mapped with 1 roots

There are 1 parameter(s) to be scanned
             R: range=  12.00000000 ..   0.80000000  steps=  112
There will be  112 energy evaluations


         *************************************************************
                                TRAJECTORY STEP   1
                  R  :  12.00000000
         *************************************************************
---------------------------------
CARTESIAN COORDINATES (ANGSTROEM)
---------------------------------
  F      0.000000    0.000000    0.000000
  F     12.000000    0.000000    0.000000

----------------------------
CARTESIAN COORDINATES (A.U.)
----------------------------
  NO LB      ZA    FRAG     MASS         X           Y           Z
   0 F     9.0000    0    18.998    0.000000    0.000000    0.000000
   1 F     9.0000    0    18.998   22.676714    0.000000    0.000000

--------------------------------
INTERNAL COORDINATES (ANGSTROEM)
--------------------------------
 F      0   0   0     0.000000000000     0.00000000     0.00000000
 F      1   0   0    12.000000000000     0.00000000     0.00000000

---------------------------
INTERNAL COORDINATES (A.U.)
---------------------------
 F      0   0   0     0.000000000000     0.00000000     0.00000000
 F      1   0   0    22.676713607055     0.00000000     0.00000000

---------------------
BASIS SET INFORMATION
---------------------
There are 1 groups of distinct atoms

 Group   1 Type F   : 12s7p3d1f contracted to 6s4p3d1f pattern {621111/4111/111/1}

Atom   0F    basis set group =>   1
Atom   1F    basis set group =>   1


           ************************************************************
           *        Program running with 8 parallel MPI-processes     *
           *              working on a common directory               *
           ************************************************************
------------------------------------------------------------------------------
                             ORCA STARTUP CALCULATIONS
------------------------------------------------------------------------------
------------------------------------------------------------------------------
                   ___                                                        
                  /   \      - P O W E R E D   B Y -                         
                 /     \                                                     
                 |  |  |   _    _      __       _____    __    __             
                 |  |  |  | |  | |    /  \     |  _  \  |  |  /  |          
                  \  \/   | |  | |   /    \    | | | |  |  | /  /          
                 / \  \   | |__| |  /  /\  \   | |_| |  |  |/  /          
                |  |  |   |  __  | /  /__\  \  |    /   |      \           
                |  |  |   | |  | | |   __   |  |    \   |  |\   \          
                \     /   | |  | | |  |  |  |  | |\  \  |  | \   \       
                 \___/    |_|  |_| |__|  |__|  |_| \__\ |__|  \__/        
                                                                              
                      - O R C A' S   B I G   F R I E N D -                    
                                      &                                       
                       - I N T E G R A L  F E E D E R -                       
                                                                              
 v1 FN, 2020, v2 2021, v3 2022-2024                                           
------------------------------------------------------------------------------


----------------------
SHARK INTEGRAL PACKAGE
----------------------

Number of atoms                             ...      2
Number of basis functions                   ...     80
Number of shells                            ...     28
Maximum angular momentum                    ...      3
Integral batch strategy                     ... SHARK/LIBINT Hybrid
RI-J (if used) integral strategy            ... SPLIT-RIJ (Revised 2003 algorithm where possible)
Printlevel                                  ...      1
Contraction scheme used                     ... SEGMENTED contraction
Prescreening option                         ... SCHWARTZ
   Thresh                                   ... 1.000e-10
   Tcut                                     ... 1.000e-11
   Tpresel                                  ... 1.000e-11 
Coulomb Range Separation                    ... NOT USED
Exchange Range Separation                   ... NOT USED
Multipole approximations                    ... NOT USED
Finite Nucleus Model                        ... NOT USED
CABS basis                                  ... NOT available
Auxiliary Coulomb fitting basis             ... NOT available
Auxiliary J/K fitting basis                 ... NOT available
Auxiliary Correlation fitting basis         ... NOT available
Auxiliary 'external' fitting basis          ... NOT available

Checking pre-screening integrals            ... done (  0.0 sec) Dimension = 28
Check shell pair data                       ... done (  0.0 sec)
Shell pair information
Shell pair cut-off parameter TPreSel        ...   1.0e-11
Total number of shell pairs                 ...       406
Shell pairs after pre-screening             ...       220
Total number of primitive shell pairs       ...      1125
Primitive shell pairs kept                  ...       600
          la=0 lb=0:     43 shell pairs
          la=1 lb=0:     52 shell pairs
          la=1 lb=1:     23 shell pairs
          la=2 lb=0:     36 shell pairs
          la=2 lb=1:     26 shell pairs
          la=2 lb=2:     12 shell pairs
          la=3 lb=0:     12 shell pairs
          la=3 lb=1:      8 shell pairs
          la=3 lb=2:      6 shell pairs
          la=3 lb=3:      2 shell pairs

Calculating one electron integrals          ... done (  0.0 sec)
Calculating Nuclear repulsion               ... done (  0.0 sec) ENN=      3.571946156025 Eh

Diagonalization of the overlap matrix:
Smallest eigenvalue                        ... 1.553e-02
Time for diagonalization                   ...    0.000 sec
Threshold for overlap eigenvalues          ... 1.000e-07
Number of eigenvalues below threshold      ... 0
Time for construction of square roots      ...    0.008 sec
Total time needed                          ...    0.016 sec

-------------------
DFT GRID GENERATION
-------------------

General Integration Accuracy     IntAcc      ... 4.388
Radial Grid Type                 RadialGrid  ... OptM3 with GC (2021)
Angular Grid (max. ang.)         AngularGrid ... 4 (Lebedev-302)
Angular grid pruning method      GridPruning ... 4 (adaptive)
Weight generation scheme         WeightScheme... mBecke (2022)
Basis function cutoff            BFCut       ... 1.0000e-10
Integration weight cutoff        WCut        ... 1.0000e-14
Partially contracted basis set               ... off
Rotationally invariant grid construction     ... off
Angular grids for H and He will be reduced by one unit
Diffuse basis detected: some atoms will have their outermost
                        angular grid increased by 1.

Total number of grid points                  ...    12920
Total number of batches                      ...      202
Average number of points per batch           ...       63
Average number of grid points per atom       ...     6460
Initializing property integral containers    ... done (  0.0 sec)

SHARK setup successfully completed in   0.2 seconds

Maximum memory used throughout the entire STARTUP-calculation: 12.4 MB


           ************************************************************
           *        Program running with 8 parallel MPI-processes     *
           *              working on a common directory               *
           ************************************************************
-------------------------------------------------------------------------------
                                 ORCA GUESS
                   Start orbitals & Density for SCF / CASSCF
-------------------------------------------------------------------------------

------------
SCF SETTINGS
------------
Hamiltonian:
 Ab initio Hamiltonian  Method          .... Hartree-Fock(GTOs)


General Settings:
 Integral files         IntName         .... cas
 Hartree-Fock type      HFTyp           .... CASSCF
 Total Charge           Charge          ....    0
 Multiplicity           Mult            ....    1
 Number of Electrons    NEL             ....   18
 Basis Dimension        Dim             ....   80
 Nuclear Repulsion      ENuc            ....      3.5719461560 Eh

---------------------
INITIAL GUESS: MOREAD
---------------------
Guess MOs are being read from file: /temp180/bsavoie2/emille35/mlip_alchemy/diatomic_scan/caspt2/f2/rhf/rhf.gbw
Input Geometry matches current geometry (good)
Input basis set matches current basis set (good)
Occupation numbers will be reassigned to an Aufbau configuration
MOs were renormalized
Gram-Schmidt orthogonalization of all MOs with pivot on actives
                      ------------------
                      INITIAL GUESS DONE (   0.0 sec)
                      ------------------
             **** ENERGY FILE WAS UPDATED (cas.en.tmp) ****
Finished Guess after   0.2 sec
Maximum memory used throughout the entire GUESS-calculation: 5.7 MB


           ************************************************************
           *        Program running with 8 parallel MPI-processes     *
           *              working on a common directory               *
           ************************************************************
-------------------------------------------------------------------------------
                              ORCA-CASSCF
-------------------------------------------------------------------------------

Building the CAS space              ... done (3 configurations for Mult=1)
Memory for address arrays  		      ... done
Make address arrays			      ... done
Memory for buffers 			      ... done
Setting up spin-function prototypes	      ... (MAXOPEN=2) 0 2 4 done
Trivial cases - DOMO's			      ... done (  0.0 MB)
Number of open shells			    ...  0
domo->virtual excitations			... done (  0.0 MB)
domo->somo excitations				... done (  0.0 MB)
somo->virtual excitations			... done (  0.0 MB)
somo->somo excitations				... done (  0.0 MB)
Number of open shells			    ...  2
domo->virtual excitations			... done (  0.0 MB)
domo->somo excitations				... done (  0.0 MB)
somo->virtual excitations			... done (  0.0 MB)
somo->somo excitations				... done (  0.0 MB)
Coupling container construction done

 CASSCF (estimated) memory needed     ... 1.2 MB
 CASPT2 (estimated) memory needed     ... 2.2 MB 


SYSTEM-SPECIFIC SETTINGS:
Number of active electrons          ...    2
Number of active orbitals           ...    2
Total number of electrons           ...   18
Total number of orbitals            ...   80

Determined orbital ranges:
   Internal       0 -    7 (   8 orbitals)
   Active         8 -    9 (   2 orbitals)
   External      10 -   79 (  70 orbitals)
Number of rotation parameters      ...    716

CI-STEP:
CI strategy                         ... General CI
Number of multiplicity blocks       ...    1
BLOCK  0 WEIGHT=   1.0000
  Multiplicity                      ...    1
  #(Configurations)                 ...    3
  #(CSFs)                           ...    3
  #(Roots)                          ...    1
    ROOT=0 WEIGHT=    1.000000

  PrintLevel                        ...    1
  N(GuessMat)                       ...      2048
  MaxDim(CI)                        ...        10
  MaxIter(CI)                       ...        64
  Energy Tolerance CI               ...  1.00e-08
  Residual Tolerance CI             ...  1.00e-08
  Shift(CI)                         ...  1.00e-04

INTEGRAL-TRANSFORMATION-STEP:
  Algorithm                         ... EXACT

ORBITAL-IMPROVEMENT-STEP:
  Algorithm                         ... SuperCI(PT)
  Default Parametrization           ... CAYLEY
  Act-Act rotations                 ... depends on algorithm used

  Note: SuperCI(PT) will ignore FreezeIE, FreezeAct and FreezeGrad. In general Default settings are encouraged.
        In conjunction with ShiftUp, ShiftDn or GradScaling the performance of SuperCI(PT) is less optimal.  

  MaxRot                            ... 2.00e-01 
  Max. no of vectors (DIIS)         ... 15
  DThresh (cut-off) metric          ... 1.00e-06
  Switch step at gradient           ...  3.00e-02 
  Switch step at iteration          ...        50   
  Switch step to                    ... SuperCI(PT)    

SCF-SETTINGS:
  Incremental                       ... on
  RIJCOSX approximation             ... off
  RI-JK approximation               ... off
  AO integral handling              ... DIRECT
  Integral Neglect Thresh           ...  1.00e-10
  Primitive cutoff TCut             ...  1.00e-11
  Energy convergence tolerance      ...  1.00e-07
  Orbital gradient convergence      ...  1.00e-03
  Max. number of iterations         ...        75  

PT2-SETTINGS:
  A PT2 calculation will be performed on top of the CASSCF wave function (PT2 = CASPT2)   
  CASPT2 Real Levelshift            ...  0.00e+00
  CASPT2 Im.  Levelshift            ...  0.00e+00
  CASPT2 IPEA Levelshift            ...  0.00e+00
 CI step strategy                   ... General CI
  D4C handling                      ... PS approximation (factorized) 
  CI truncation for D4C at          ...  1.00e-12
  CI truncation for D3  at          ...  1.00e-14
  Orbitals                          ... canonical for each state 
  Last  frozen  orbital             ... 1
  First deleted orbital             ... 80

FINAL ORBITALS:
  Active   Orbitals                 ... natural 
  Internal Orbitals                 ... canonical 
  External Orbitals                 ... canonical 

------------------
CAS-SCF ITERATIONS
------------------


MACRO-ITERATION   1: 
   --- Inactive Energy E0 = -197.14910598 Eh
CI-ITERATION   0: 
  -198.784029669   0.000000000000 (    0.01)
   CI-PROBLEM SOLVED
   DENSITIES MADE

                 <<<<<<<<<<<<<<<<<<INITIAL CI STATE CHECK>>>>>>>>>>>>>>>>>>

BLOCK  0 MULT= 1 NROOTS= 1 
ROOT   0:  E=    -198.7840296692 Eh
      0.50000 [     0]: 20
      0.50000 [     2]: 02

                 <<<<<<<<<<<<<<<<<<INITIAL CI STATE CHECK>>>>>>>>>>>>>>>>>>

   E(CAS)=  -198.784029669 Eh DE=    0.000000e+00
   --- Energy gap subspaces: Ext-Act = 0.533   Act-Int = 0.358
   N(occ)=  1.00001 0.99999
   ||g|| =     3.572465e-01 Max(G)=    1.874730e-01 Rot=32,8
   --- Orbital Update [SuperCI(PT)]
   --- Canonicalize Internal Space
   --- Canonicalize External Space
   --- SX_PT (Skipped TA=0 IT=0): ||X|| =      0.116720947 Max(X)(14,8) =     -0.058237215 
   --- SFit(Active Orbitals)

MACRO-ITERATION   2: 
   --- Inactive Energy E0 = -197.14909290 Eh
CI-ITERATION   0: 
  -198.809107886   0.000000000000 (    0.00)
   CI-PROBLEM SOLVED
   DENSITIES MADE
   E(CAS)=  -198.809107886 Eh DE=   -2.507822e-02
   --- Energy gap subspaces: Ext-Act = 0.510   Act-Int = 0.350
   N(occ)=  1.00000 1.00000
   ||g|| =     2.082554e-01 Max(G)=   -6.323915e-02 Rot=33,9
   --- Orbital Update [SuperCI(PT)]
   --- Canonicalize Internal Space
   --- Canonicalize External Space
   --- SX_PT (Skipped TA=0 IT=0): ||X|| =      0.043164449 Max(X)(33,9) =      0.019024954 
   --- SFit(Active Orbitals)

MACRO-ITERATION   3: 
   --- Inactive Energy E0 = -197.09626654 Eh
CI-ITERATION   0: 
  -198.814313958   0.000000000000 (    0.00)
   CI-PROBLEM SOLVED
   DENSITIES MADE
   E(CAS)=  -198.814313958 Eh DE=   -5.206072e-03
   --- Energy gap subspaces: Ext-Act = 0.523   Act-Int = 0.345
   N(occ)=  1.00000 1.00000
   ||g|| =     9.662290e-02 Max(G)=    2.684917e-02 Rot=50,8
   --- Orbital Update [SuperCI(PT)]
   --- Canonicalize Internal Space
   --- Canonicalize External Space
   --- SX_PT (Skipped TA=0 IT=0): ||X|| =      0.014525882 Max(X)(32,8) =     -0.007364451 
   --- SFit(Active Orbitals)

MACRO-ITERATION   4: 
   --- Inactive Energy E0 = -197.10271471 Eh
CI-ITERATION   0: 
  -198.814826113   0.000000000000 (    0.01)
   CI-PROBLEM SOLVED
   DENSITIES MADE
   E(CAS)=  -198.814826113 Eh DE=   -5.121553e-04
   --- Energy gap subspaces: Ext-Act = 0.514   Act-Int = 0.347
   N(occ)=  1.00000 1.00000
   ||g|| =     7.176905e-03 Max(G)=    2.335080e-03 Rot=50,8
   --- Orbital Update [SuperCI(PT)]
   --- Canonicalize Internal Space
   --- Canonicalize External Space
   --- SX_PT (Skipped TA=0 IT=0): ||X|| =      0.001200538 Max(X)(10,8) =     -0.000391379 
   --- SFit(Active Orbitals)

MACRO-ITERATION   5: 
   --- Inactive Energy E0 = -197.10146505 Eh
CI-ITERATION   0: 
  -198.814830809   0.000000000000 (    0.01)
   CI-PROBLEM SOLVED
   DENSITIES MADE
   E(CAS)=  -198.814830809 Eh DE=   -4.695906e-06
   --- Energy gap subspaces: Ext-Act = 0.514   Act-Int = 0.347
   N(occ)=  1.00000 1.00000
   ||g|| =     7.800914e-04 Max(G)=    2.934877e-04 Rot=49,7
                     ---- THE CAS-SCF GRADIENT HAS CONVERGED ----
                            --- FINALIZING ORBITALS ---
                    ---- DOING ONE FINAL ITERATION FOR PRINTING ----
   --- Canonicalize Internal Space
   --- Canonicalize External Space

MACRO-ITERATION   6: 
   --- Inactive Energy E0 = -197.10146505 Eh
   --- All densities will be recomputed
CI-ITERATION   0: 
  -198.814830809   0.000000000000 (    0.01)
   CI-PROBLEM SOLVED
   DENSITIES MADE
   E(CAS)=  -198.814830809 Eh DE=   -3.689138e-11
   --- Energy gap subspaces: Ext-Act = 0.511   Act-Int = 0.347
   N(occ)=  1.00000 1.00000
   ||g|| =     7.800917e-04 Max(G)=   -2.131088e-04 Rot=50,6
--------------
CASSCF RESULTS
--------------

Final CASSCF energy       : -198.814830809 Eh   -5410.0266 eV

----------------
ORBITAL ENERGIES
----------------

  NO   OCC          E(Eh)            E(eV) 
   0   2.0000     -26.384254      -717.9520 
   1   2.0000     -26.384254      -717.9520 
   2   2.0000      -1.572964       -42.8025 
   3   2.0000      -1.572964       -42.8025 
   4   2.0000      -0.705893       -19.2083 
   5   2.0000      -0.705893       -19.2083 
   6   2.0000      -0.705893       -19.2083 
   7   2.0000      -0.705893       -19.2083 
   8   1.0000      -0.359213        -9.7747 
   9   1.0000      -0.359212        -9.7747 
  10   0.0000       0.151978         4.1355 
  11   0.0000       0.151993         4.1359 
  12   0.0000       0.155202         4.2233 
  13   0.0000       0.155202         4.2233 
  14   0.0000       0.155203         4.2233 
  15   0.0000       0.155203         4.2233 
  16   0.0000       0.172834         4.7031 
  17   0.0000       0.172834         4.7031 
  18   0.0000       0.589656        16.0454 
  19   0.0000       0.589656        16.0454 
  20   0.0000       0.592077        16.1112 
  21   0.0000       0.592077        16.1112 
  22   0.0000       0.592077        16.1112 
  23   0.0000       0.592077        16.1112 
  24   0.0000       0.599404        16.3106 
  25   0.0000       0.599404        16.3106 
  26   0.0000       0.599404        16.3106 
  27   0.0000       0.599404        16.3106 
  28   0.0000       0.850232        23.1360 
  29   0.0000       0.850241        23.1362 
  30   0.0000       0.852851        23.2072 
  31   0.0000       0.852851        23.2072 
  32   0.0000       0.852851        23.2073 
  33   0.0000       0.852851        23.2073 
  34   0.0000       1.019832        27.7510 
  35   0.0000       1.019832        27.7510 
  36   0.0000       2.476504        67.3891 
  37   0.0000       2.476504        67.3891 
  38   0.0000       2.481533        67.5259 
  39   0.0000       2.481533        67.5259 
  40   0.0000       2.481533        67.5259 
  41   0.0000       2.481533        67.5259 
  42   0.0000       2.495961        67.9185 
  43   0.0000       2.495961        67.9185 
  44   0.0000       2.495961        67.9185 
  45   0.0000       2.495961        67.9185 
  46   0.0000       3.671667        99.9111 
  47   0.0000       3.671672        99.9113 
  48   0.0000       3.678814       100.1056 
  49   0.0000       3.678814       100.1056 
  50   0.0000       3.678814       100.1056 
  51   0.0000       3.678814       100.1056 
  52   0.0000       4.199574       114.2762 
  53   0.0000       4.199574       114.2762 
  54   0.0000       7.291734       198.4182 
  55   0.0000       7.291734       198.4182 
  56   0.0000       7.298691       198.6075 
  57   0.0000       7.298691       198.6075 
  58   0.0000       7.298691       198.6075 
  59   0.0000       7.298691       198.6075 
  60   0.0000       7.319258       199.1671 
  61   0.0000       7.319258       199.1671 
  62   0.0000       7.319258       199.1671 
  63   0.0000       7.319258       199.1671 
  64   0.0000       7.353688       200.1040 
  65   0.0000       7.353688       200.1040 
  66   0.0000       7.353688       200.1040 
  67   0.0000       7.353688       200.1040 
  68   0.0000       8.931360       243.0347 
  69   0.0000       8.931360       243.0347 
  70   0.0000       8.942250       243.3310 
  71   0.0000       8.942250       243.3310 
  72   0.0000       8.942250       243.3310 
  73   0.0000       8.942250       243.3310 
  74   0.0000       8.975263       244.2293 
  75   0.0000       8.975263       244.2293 
  76   0.0000       8.975263       244.2293 
  77   0.0000       8.975263       244.2293 
  78   0.0000      58.332641      1587.3119 
  79   0.0000      58.332641      1587.3119 


---------------------------------------------
CAS-SCF STATES FOR BLOCK  0 MULT= 1 NROOTS= 1
---------------------------------------------

ROOT   0:  E=    -198.8148308090 Eh
      0.50000 [     0]: 20
      0.50000 [     2]: 02


--------------
DENSITY MATRIX
--------------

                  0          1    
      0       1.000000   0.000000
      1       0.000000   1.000000
Trace of the electron density:  2.000000

-----------------
ENERGY COMPONENTS
-----------------

One electron energy          :   -285.628375126 Eh       -7772.3432 eV
Two electron energy          :     83.241598161 Eh        2265.1190 eV
Nuclear repulsion energy     :      3.571946156 Eh          97.1976 eV
                               ----------------
                                 -198.814830809

Kinetic energy               :    198.799462361 Eh        5409.6084 eV
Potential energy             :   -397.614293170 Eh      -10819.6350 eV
Virial ratio                 :     -2.000077306 
                               ----------------
                                 -198.814830809

Core energy                  :   -197.101465049 Eh    -5363.4035 eV


----------------------------
LOEWDIN ORBITAL-COMPOSITIONS
----------------------------

                      0         1         2         3         4         5   
                 -26.38425 -26.38425  -1.57296  -1.57296  -0.70589  -0.70589
                   2.00000   2.00000   2.00000   2.00000   2.00000   2.00000
                  --------  --------  --------  --------  --------  --------
 0 F  s               0.0     100.0      34.4      65.6       0.0       0.0
 1 F  s             100.0       0.0      65.6      34.4       0.0       0.0
 1 F  pz              0.0       0.0       0.0       0.0      94.7       5.3
 1 F  py              0.0       0.0       0.0       0.0       5.3      94.7

                      6         7         8         9        10        11   
                  -0.70589  -0.70589  -0.35921  -0.35921   0.15198   0.15199
                   2.00000   2.00000   1.00000   1.00000   0.00000   0.00000
                  --------  --------  --------  --------  --------  --------
 0 F  pz             99.9       0.1       0.0       0.0       0.0       0.0
 0 F  px              0.0       0.0      50.0      50.0      50.0      50.0
 0 F  py              0.1      99.9       0.0       0.0       0.0       0.0
 1 F  px              0.0       0.0      50.0      50.0      50.0      50.0

                     12        13        14        15        16        17   
                   0.15520   0.15520   0.15520   0.15520   0.17283   0.17283
                   0.00000   0.00000   0.00000   0.00000   0.00000   0.00000
                  --------  --------  --------  --------  --------  --------
 0 F  s               0.0       0.0       0.0       0.0      46.9      53.1
 0 F  pz             46.6       3.4      45.7       4.3       0.0       0.0
 0 F  py              3.4      46.6       4.3      45.7       0.0       0.0
 1 F  s               0.0       0.0       0.0       0.0      53.1      46.9
 1 F  pz             46.6       3.4      45.7       4.3       0.0       0.0
 1 F  py              3.4      46.6       4.3      45.7       0.0       0.0

                     18        19        20        21        22        23   
                   0.58966   0.58966   0.59208   0.59208   0.59208   0.59208
                   0.00000   0.00000   0.00000   0.00000   0.00000   0.00000
                  --------  --------  --------  --------  --------  --------
 0 F  dz2            10.7      14.3       0.0       0.0       0.0       0.0
 0 F  dxz             0.0       0.0       0.8       0.5       0.5      98.1
 0 F  dx2y2          32.1      42.8       0.0       0.0       0.0       0.0
 0 F  dxy             0.0       0.0       0.5       0.8      98.1       0.5
 1 F  dz2            14.3      10.7       0.0       0.0       0.0       0.0
 1 F  dxz             0.0       0.0      61.8      36.9       0.0       1.3
 1 F  dx2y2          42.8      32.1       0.0       0.0       0.0       0.0
 1 F  dxy             0.0       0.0      36.9      61.8       1.3       0.0

                     24        25        26        27        28        29   
                   0.59940   0.59940   0.59940   0.59940   0.85023   0.85024
                   0.00000   0.00000   0.00000   0.00000   0.00000   0.00000
                  --------  --------  --------  --------  --------  --------
 0 F  px              0.0       0.0       0.0       0.0      50.0      50.0
 0 F  dz2             0.0       0.0       4.7      70.3       0.0       0.0
 0 F  dyz             0.0       0.0      93.7       6.3       0.0       0.0
 0 F  dx2y2           0.0       0.0       1.6      23.4       0.0       0.0
 1 F  px              0.0       0.0       0.0       0.0      50.0      50.0
 1 F  dz2             4.4      70.6       0.0       0.0       0.0       0.0
 1 F  dyz            94.2       5.8       0.0       0.0       0.0       0.0
 1 F  dx2y2           1.5      23.5       0.0       0.0       0.0       0.0

                     30        31        32        33        34        35   
                   0.85285   0.85285   0.85285   0.85285   1.01983   1.01983
                   0.00000   0.00000   0.00000   0.00000   0.00000   0.00000
                  --------  --------  --------  --------  --------  --------
 0 F  s               0.0       0.0       0.0       0.0       0.0     100.0
 0 F  pz             41.1       8.8      45.5       4.6       0.0       0.0
 0 F  py              8.8      41.1       4.6      45.5       0.0       0.0
 1 F  s               0.0       0.0       0.0       0.0     100.0       0.0
 1 F  pz             41.2       8.8      45.4       4.6       0.0       0.0
 1 F  py              8.8      41.2       4.6      45.4       0.0       0.0

                     36        37        38        39        40        41   
                   2.47650   2.47650   2.48153   2.48153   2.48153   2.48153
                   0.00000   0.00000   0.00000   0.00000   0.00000   0.00000
                  --------  --------  --------  --------  --------  --------
 0 F  dz2             4.3      20.7       0.0       0.0       0.0       0.0
 0 F  dxz             0.0       0.0       0.0       0.0       2.3      97.6
 0 F  dx2y2          13.0      62.0       0.0       0.0       0.0       0.0
 0 F  dxy             0.0       0.0       0.0       0.0      97.6       2.3
 1 F  dz2            20.7       4.3       0.0       0.0       0.0       0.0
 1 F  dxz             0.0       0.0      64.3      35.7       0.0       0.0
 1 F  dx2y2          62.0      13.0       0.0       0.0       0.0       0.0
 1 F  dxy             0.0       0.0      35.7      64.3       0.0       0.0

                     42        43        44        45        46        47   
                   2.49596   2.49596   2.49596   2.49596   3.67167   3.67167
                   0.00000   0.00000   0.00000   0.00000   0.00000   0.00000
                  --------  --------  --------  --------  --------  --------
 0 F  px              0.0       0.0       0.0       0.0      50.0      50.0
 0 F  dz2             0.0       0.0      67.8       7.2       0.0       0.0
 0 F  dyz             0.0       0.0       9.5      90.5       0.0       0.0
 0 F  dx2y2           0.0       0.0      22.6       2.4       0.0       0.0
 1 F  px              0.0       0.0       0.0       0.0      50.0      50.0
 1 F  dz2            17.5      57.5       0.0       0.0       0.0       0.0
 1 F  dyz            76.6      23.4       0.0       0.0       0.0       0.0
 1 F  dx2y2           5.8      19.2       0.0       0.0       0.0       0.0

                     48        49        50        51        52        53   
                   3.67881   3.67881   3.67881   3.67881   4.19957   4.19957
                   0.00000   0.00000   0.00000   0.00000   0.00000   0.00000
                  --------  --------  --------  --------  --------  --------
 0 F  s               0.0       0.0       0.0       0.0       0.5      99.5
 0 F  pz             49.3       0.0      50.7       0.0       0.0       0.0
 0 F  py              0.0      49.3       0.0      50.7       0.0       0.0
 1 F  s               0.0       0.0       0.0       0.0      99.5       0.5
 1 F  pz             50.7       0.0      49.3       0.0       0.0       0.0
 1 F  py              0.0      50.7       0.0      49.3       0.0       0.0

                     54        55        56        57        58        59   
                   7.29173   7.29173   7.29869   7.29869   7.29869   7.29869
                   0.00000   0.00000   0.00000   0.00000   0.00000   0.00000
                  --------  --------  --------  --------  --------  --------
 0 F  f0              0.0       0.0       0.0       0.0      37.3       0.2
 0 F  f+1             3.9      33.6       0.0       0.0       0.0       0.0
 0 F  f-1             0.0       0.0       0.0       0.0       0.0       6.2
 0 F  f+2             0.0       0.0       0.0       0.0      62.2       0.3
 0 F  f+3             6.4      56.1       0.0       0.0       0.0       0.0
 0 F  f-3             0.0       0.0       0.0       0.0       0.5      93.2
 1 F  f0              0.0       0.0      19.2      18.3       0.0       0.0
 1 F  f+1            33.6       3.9       0.0       0.0       0.0       0.0
 1 F  f-1             0.0       0.0       3.1       3.2       0.0       0.0
 1 F  f+2             0.0       0.0      32.0      30.5       0.0       0.0
 1 F  f+3            56.1       6.4       0.0       0.0       0.0       0.0
 1 F  f-3             0.0       0.0      45.8      48.0       0.0       0.0

                     60        61        62        63        64        65   
                   7.31926   7.31926   7.31926   7.31926   7.35369   7.35369
                   0.00000   0.00000   0.00000   0.00000   0.00000   0.00000
                  --------  --------  --------  --------  --------  --------
 0 F  f+1             0.0       0.0      27.9      34.6       0.0       0.0
 0 F  f-2             0.0       0.0      55.4      44.6       0.0       0.0
 0 F  f+3             0.0       0.0      16.7      20.8       0.0       0.0
 1 F  f0              0.0       0.0       0.0       0.0      11.0      51.5
 1 F  f+1            60.7       1.8       0.0       0.0       0.0       0.0
 1 F  f-1             0.0       0.0       0.0       0.0      77.2      16.5
 1 F  f+2             0.0       0.0       0.0       0.0       6.6      30.9
 1 F  f-2             2.9      97.1       0.0       0.0       0.0       0.0
 1 F  f+3            36.4       1.1       0.0       0.0       0.0       0.0
 1 F  f-3             0.0       0.0       0.0       0.0       5.1       1.1

                     66        67        68        69        70        71   
                   7.35369   7.35369   8.93136   8.93136   8.94225   8.94225
                   0.00000   0.00000   0.00000   0.00000   0.00000   0.00000
                  --------  --------  --------  --------  --------  --------
 0 F  dz2             0.0       0.0       0.0      25.0       0.0       0.0
 0 F  dx2y2           0.0       0.0       0.1      74.9       0.0       0.0
 0 F  f0             13.9      48.6       0.0       0.0       0.0       0.0
 0 F  f-1            72.9      20.9       0.0       0.0       0.0       0.0
 0 F  f+2             8.4      29.1       0.0       0.0       0.0       0.0
 0 F  f-3             4.9       1.4       0.0       0.0       0.0       0.0
 1 F  dz2             0.0       0.0      25.0       0.0       0.0       0.0
 1 F  dxz             0.0       0.0       0.0       0.0      39.0      61.0
 1 F  dx2y2           0.0       0.0      74.9       0.1       0.0       0.0
 1 F  dxy             0.0       0.0       0.0       0.0      61.0      39.0

                     72        73        74        75        76        77   
                   8.94225   8.94225   8.97526   8.97526   8.97526   8.97526
                   0.00000   0.00000   0.00000   0.00000   0.00000   0.00000
                  --------  --------  --------  --------  --------  --------
 0 F  dz2             0.0       0.0       0.0       0.0      53.9      21.1
 0 F  dxz            99.5       0.5       0.0       0.0       0.0       0.0
 0 F  dyz             0.0       0.0       0.0       0.0      28.2      71.8
 0 F  dx2y2           0.0       0.0       0.0       0.0      18.0       7.0
 0 F  dxy             0.5      99.5       0.0       0.0       0.0       0.0
 1 F  dz2             0.0       0.0      28.4      46.6       0.0       0.0
 1 F  dyz             0.0       0.0      62.2      37.8       0.0       0.0
 1 F  dx2y2           0.0       0.0       9.5      15.5       0.0       0.0

                     78        79   
                  58.33264  58.33264
                   0.00000   0.00000
                  --------  --------
 0 F  s               0.2      99.8
 1 F  s              99.8       0.2

----------------------------
LOEWDIN REDUCED ACTIVE MOs  
----------------------------

                      6         7         8         9        10        11   
                  -0.70589  -0.70589  -0.35921  -0.35921   0.15198   0.15199
                   2.00000   2.00000   1.00000   1.00000   0.00000   0.00000
                  --------  --------  --------  --------  --------  --------
 0 F  pz             99.9       0.1       0.0       0.0       0.0       0.0
 0 F  px              0.0       0.0      50.0      50.0      50.0      50.0
 0 F  py              0.1      99.9       0.0       0.0       0.0       0.0
 1 F  px              0.0       0.0      50.0      50.0      50.0      50.0

------------------------------------------------------------------------------
                           ORCA POPULATION ANALYSIS
------------------------------------------------------------------------------
Input electron density              ... cas.scfp
BaseName (.gbw .S,...)              ... cas

                    ********************************
                    * MULLIKEN POPULATION ANALYSIS *
                    ********************************

-----------------------
MULLIKEN ATOMIC CHARGES
-----------------------
   0 F :    0.000000
   1 F :   -0.000000
Sum of atomic charges:    0.0000000

--------------------------------
MULLIKEN REDUCED ORBITAL CHARGES
--------------------------------
  0 F s       :     3.999972  s :     3.999972
      pz      :     1.999983  p :     4.999908
      px      :     0.999942
      py      :     1.999983
      dz2     :     0.000007  d :     0.000028
      dxz     :     0.000000
      dyz     :     0.000000
      dx2y2   :     0.000021
      dxy     :     0.000000
      f0      :     0.000006  f :     0.000092
      f+1     :     0.000022
      f-1     :     0.000001
      f+2     :     0.000011
      f-2     :     0.000000
      f+3     :     0.000036
      f-3     :     0.000016
  1 F s       :     3.999972  s :     3.999972
      pz      :     1.999983  p :     4.999908
      px      :     0.999942
      py      :     1.999983
      dz2     :     0.000007  d :     0.000028
      dxz     :     0.000000
      dyz     :     0.000000
      dx2y2   :     0.000021
      dxy     :     0.000000
      f0      :     0.000006  f :     0.000092
      f+1     :     0.000022
      f-1     :     0.000001
      f+2     :     0.000011
      f-2     :     0.000000
      f+3     :     0.000036
      f-3     :     0.000016


                     *******************************
                     * LOEWDIN POPULATION ANALYSIS *
                     *******************************

----------------------
LOEWDIN ATOMIC CHARGES
----------------------
   0 F :    0.000000
   1 F :   -0.000000

-------------------------------
LOEWDIN REDUCED ORBITAL CHARGES
-------------------------------
  0 F s       :     3.999972  s :     3.999972
      pz      :     1.999983  p :     4.999908
      px      :     0.999942
      py      :     1.999983
      dz2     :     0.000007  d :     0.000028
      dxz     :     0.000000
      dyz     :     0.000000
      dx2y2   :     0.000021
      dxy     :     0.000000
      f0      :     0.000006  f :     0.000092
      f+1     :     0.000022
      f-1     :     0.000001
      f+2     :     0.000011
      f-2     :     0.000000
      f+3     :     0.000036
      f-3     :     0.000016
  1 F s       :     3.999972  s :     3.999972
      pz      :     1.999983  p :     4.999908
      px      :     0.999942
      py      :     1.999983
      dz2     :     0.000007  d :     0.000028
      dxz     :     0.000000
      dyz     :     0.000000
      dx2y2   :     0.000021
      dxy     :     0.000000
      f0      :     0.000006  f :     0.000092
      f+1     :     0.000022
      f-1     :     0.000001
      f+2     :     0.000011
      f-2     :     0.000000
      f+3     :     0.000036
      f-3     :     0.000016


                      *****************************
                      * MAYER POPULATION ANALYSIS *
                      *****************************

  NA   - Mulliken gross atomic population
  ZA   - Total nuclear charge
  QA   - Mulliken gross atomic charge
  VA   - Mayer's total valence
  BVA  - Mayer's bonded valence
  FA   - Mayer's free valence

  ATOM       NA         ZA         QA         VA         BVA        FA
  0 F      9.0000     9.0000     0.0000     1.0000     0.0000     1.0000
  1 F      9.0000     9.0000    -0.0000     1.0000     0.0000     1.0000

  Mayer bond orders larger than 0.100000
  => No bond orders to print


----------------------------------------------------------------
                           < CASPT2  >                          
----------------------------------------------------------------

SYSTEM-SPECIFIC SETTINGS:
Number of active electrons          ...    2
Number of active orbitals           ...    2
Total number of electrons           ...   18
Total number of orbitals            ...   80

Determined orbital ranges:
   Internal       0 -    7 (   8 orbitals)
   Active         8 -    9 (   2 orbitals)
   External      10 -   79 (  70 orbitals)
  Last  frozen  orbital             ... 1
  First deleted orbital             ... 80
Number of multiplicity blocks       ...    1
BLOCK  0 WEIGHT=   1.0000
  Multiplicity                      ...    1
  #(Configurations)                 ...    3
  #(CSFs)                           ...    3
  #(Roots)                          ...    1
  PrintLevel                        ...    1

INTEGRAL-TRANSFORMATION-STEP:
  Algorithm                         ... EXACT

PT2-SETTINGS:
  CASPT2 Real Levelshift            ...  0.00e+00
  CASPT2 Im.  Levelshift            ...  0.00e+00
  CASPT2 IPEA Levelshift            ...  0.00e+00
 CI step strategy                   ... General CI
  D4C handling                      ... PS approximation (factorized) 
  CI truncation for D4C at          ...  1.00e-12
  CI truncation for D3  at          ...  1.00e-14
  NThresh (linear dependencies)     ...  1.00e-06
  Orbitals                          ... canonical for each state 
  MaxDIIS                           ... 7
  MaxIter                           ... 50
  PrintLevel                        ... 1 

 --------------------
  MULT 1, ROOT 0 
 --------------------
   --- Canonicalize Internal Space
   --- Canonicalize External Space

     D1, D2 Build      ... done in        0.0 sec
     D3 Build          ... CI space truncated: 3 -> 2 CFGs 
                       ... RI space truncated: 3 -> 3 CFGs 
                       ... 
                       ... correcting norm (1.000000e+00) 
                       ... done in        0.0 sec
     Hole densities    ... done in        0.0 sec
     Calc Fock         ... done in        0.0 sec
 CASPT2 intermediates avoiding 4-th order density matrix   ...

     Class VIJAB       ... done in        0.0 sec
     Class ITAB        ... Skipped =         0 of        58800 LowestEV= 3.592124e-01 ... done in        0.1 sec 
     Class TUAB        ...  ERROR! All eigenvalues are <= 0 !!
Skipped =     14700 of        19600 LowestEV= 7.184249e-01 ... done in        0.0 sec 
     Class IJTA        ... Skipped =         0 of         5040 LowestEV=-3.592125e-01 ... done in        0.1 sec 
     Class IJTU        ...  ERROR! All eigenvalues are <= 0 !!
Skipped =        63 of           84 LowestEV= 0.000000e+00 ... done in        0.0 sec 
     Class ITUA/ITAU   ... Skipped =      1680 of         3360 LowestEV=-1.032009e-07 ... done in        0.0 sec 
     Class TUVA        ... CI space truncated: 3 -> 2 CFGs 
                       ... RI space truncated: 3 -> 3 CFGs 
                       ... 
                       ... correcting norm (1.000000e+00) 
                       ... Skipped =       420 of          560 LowestEV= 3.592124e-01 ... done in        0.0 sec 
     Class ITUV        ... CI space truncated: 3 -> 2 CFGs 
                       ... RI space truncated: 3 -> 3 CFGs 
                       ... 
                       ... correcting norm (1.000000e+00) 
                       ... Skipped =         6 of           48 LowestEV=-3.592125e-01 ... done in        0.0 sec 

-----------------------------------
 CASPT2-D Energy =     -0.419972967
-----------------------------------

Class V0_ijab: dE=     -0.268232393
Class Vm1_iab: dE=     -0.105390177
Class Vm2_ab : dE=     -0.000000003
Class V1_ija : dE=     -0.025639020
Class V2_ij  : dE=     -0.000000001
Class V0_ia  : dE=     -0.020711363
Class Vm1_a  : dE=     -0.000000008
Class V1_i   : dE=     -0.000000000


smallest energy denominator IJAB =      1.715741408
smallest energy denominator ITAB =      1.369061317
smallest energy denominator IJTA =      1.204550693
smallest energy denominator TUAB =      1.022381328
smallest energy denominator IJTU =      0.693360081
smallest energy denominator ITAU =      0.857870601
smallest energy denominator TUVA =      0.511190612
smallest energy denominator ITUV =      0.346679989

 Iter           EPT2     EHylleraas  residual norm    Time
    1    -0.41997297    -0.41950304     0.02136858     0.6
    2    -0.41950304    -0.41966242     0.00176060     0.8
    3    -0.41966128    -0.41966347     0.00011946     0.6
    4    -0.41966305    -0.41966348     0.00001302     0.9
    5    -0.41966347    -0.41966348     0.00000066     0.6
    6    -0.41966348    -0.41966348     0.00000006     0.6

 CASPT2 calculation converged in 6 iterations 


 Reference Weight =      0.932553217

 ===============================================================
                       CASPT2 Results  
 ===============================================================
   *********************
    MULT 1, ROOT 0 
   *********************

  Class V0_ijab :	 dE = -0.268145069037 
  Class Vm1_iab :	 dE = -0.105356302617 
  Class Vm2_ab  :	 dE = -0.000000003413 
  Class V1_ija  :	 dE = -0.025559276578 
  Class V2_ij   :	 dE = -0.000000001397 
  Class V0_ia   :	 dE = -0.020602816461 
  Class Vm1_a   :	 dE = -0.000000008980 
  Class V1_i    :	 dE = -0.000000000116 

 --------------------------------------------------------------- 
 	 Total Energy Correction : dE = -0.41966347859912
 --------------------------------------------------------------- 
 	 Reference  Energy       : E0 = -198.81483080901251
 	 Reference Weight        : W0 = 0.93255321696507
 --------------------------------------------------------------- 
 	 Total Energy (E0+dE)    : E  = -199.23449428761162
 --------------------------------------------------------------- 

--------------
TIMINGS CASPT2
--------------

Sum of individual times        ...       26.4 sec (100.0%)

   Integraltransformation      ...        2.1 sec (  8.1%)
   Building Fock and alike     ...        0.0 sec (  0.1%)
   Building D2,D1              ...        0.0 sec (  0.0%)
   Building D3                 ...        0.0 sec (  0.0%)
   Building D4                 ...        0.0 sec (  0.0%)
   All densities               ...        0.0 sec (  0.0%)
   Hole Densities              ...        0.0 sec (  0.0%)
   Re-Canonicalization         ...        0.0 sec (  0.1%)
   Iterations                  ...       24.0 sec ( 90.7%)
   Classes Vijab               ...        0.0 sec (  0.0%)
   Class Viab                  ...        0.1 sec (  0.3%)
   Class Vab                   ...        0.0 sec (  0.0%)
   Class Vija                  ...        0.1 sec (  0.3%)
   Class Vij                   ...        0.0 sec (  0.0%)
   Class Via                   ...        0.0 sec (  0.0%)
   Class Va                    ...        0.0 sec (  0.0%)
   Class Vi                    ...        0.0 sec (  0.0%)
   All Classes                 ...       24.2 sec ( 91.7%)

-------------------------------------------------------------
 Forming the transition density       ... done in 0.0 sec
-------------------------------------------------------------

--------------
CASSCF TIMINGS
--------------

Total time                       ...       32.6 sec
Sum of individual times          ...       32.2 sec ( 98.8%)

Calculation of AO operators
   F(Core) operator              ...        0.1 sec (  0.3%)
   G(Act) operator               ...        0.1 sec (  0.2%)
Calculation of MO transformed quantities
   J(MO) operators               ...        4.4 sec ( 13.6%)
   AO->MO one electron integrals ...        0.0 sec (  0.0%)
Configuration interaction steps
   CI-setup phase                ...        0.4 sec (  1.2%)
   CI-solution phase             ...        0.6 sec (  1.7%)
   Generation of densities       ...        0.0 sec (  0.0%)
Orbital improvement steps
   Orbital gradient              ...        0.0 sec (  0.1%)
   O(1) converger                ...        0.0 sec (  0.0%)
CPCM steps
   Total CPCM time               ...        0.0 sec (  0.1%)
PT2 
   CASPT2 time                   ...       26.5 sec ( 81.4%)
Properties                       ...        0.0 sec (  0.0%)
   SOC integral calculation      ...        0.0 sec (  0.0%)
   SSC RMEs (incl. integrals)    ...        0.0 sec (  0.0%)
   SOC RMEs                      ...        0.0 sec (  0.0%)

Maximum memory used throughout the entire CASSCF-calculation: 124.5 MB


           ************************************************************
           *        Program running with 8 parallel MPI-processes     *
           *              working on a common directory               *
           ************************************************************

------------------------------------------------------------------------------
                         ORCA PROPERTY INTEGRAL CALCULATIONS
------------------------------------------------------------------------------

GBWName                                   ... cas.gbw
Number of atoms                           ...      2
Number of basis functions                 ...     80
Max core memory                           ...   1024 MB

Dipole integrals                          ... YES
Quadrupole integrals                      ...  NO
Linear momentum integrals                 ...  NO
Angular momentum integrals                ... YES
Higher moments length integrals           ...  NO
Higher moments velocity integrals         ...  NO
Kinetic energy integrals                  ...  NO
GIAO right hand sides                     ...  NO
GIAO dipole derivative integrals          ...  NO
SOC integrals                             ...  NO
EPR diamagnetic integrals (GIAO)          ...  NO
EPR gauge integrals                       ...  NO
Field gradient integrals                  ...  NO (   0 nuclei)
Spin-dipole/Fermi contact integrals       ...  NO (   0 nuclei)
Contact density integrals                 ...  NO (   0 nuclei)
Nucleus-orbit integrals                   ...  NO (   0 nuclei)
Geometric perturbations                   ...  NO (   2 nuclei)

Choice of electric origin   ... Center of mass
Position of electric origin ... ( 11.3384,  0.0000,  0.0000) 
Choice of magnetic origin   ... GIAO
Position of magnetic origin ... (  0.0000,  0.0000,  0.0000) 

Calculating integrals                     ... Electric Dipole (Length)     done (  0.0 sec)
Calculating integrals                     ... Angular Momentum  (ElOri)    done (  0.0 sec)

Property integrals calculated in   0.0 sec

Maximum memory used throughout the entire PROPINT-calculation: 5.9 MB


           ************************************************************
           *        Program running with 8 parallel MPI-processes     *
           *              working on a common directory               *
           ************************************************************
-------------------------------------------------------------------------------
                              ORCA-CASSCF
-------------------------------------------------------------------------------

Setting up the integral package     ... done

PROPERTIES-SETTINGS:
  QDPT diagonal energies            ... CASPT2 energies 


==========================================
CASSCF UV, CD spectra and dipole moments
==========================================


=====================================================================
CASSCF (CASPT2 diagonal energies) UV, CD spectra and dipole moments
=====================================================================

--------------
CASSCF TIMINGS
--------------

Total time                       ...        1.0 sec
Sum of individual times          ...        1.0 sec ( 99.4%)

Calculation of AO operators
Calculation of MO transformed quantities
Configuration interaction steps
   CI-setup phase                ...        1.0 sec ( 99.4%)
Orbital improvement steps

Maximum memory used throughout the entire CASSCF-calculation: 25.7 MB

-------------------------   --------------------
FINAL SINGLE POINT ENERGY      -199.234494287612
-------------------------   --------------------

Storing actual gbw-file in cas.001.gbw ... done


           ************************************************************
           *        Program running with 8 parallel MPI-processes     *
           *              working on a common directory               *
           ************************************************************

------------------------------------------------------------------------------
                              ORCA PROPERTY CALCULATIONS
------------------------------------------------------------------------------

GBWName                                 ... cas.gbw
Number of atoms                         ...      2
Number of basis functions               ...     80
Max core memory                         ...   1024 MB

Electric properties:
Dipole moment                           ... YES
Quadrupole moment                       ...  NO
Static polarizability (Dipole/Dipole)   ...  NO
Static polarizability (Dipole/Quad.)    ...  NO
Static polarizability (Quad./Quad.)     ...  NO
Static polarizability (Velocity)        ...  NO

Atomic electric properties:
Dipole moment                           ...  NO
Quadrupole moment                       ...  NO
Static polarizability                   ...  NO

Choice of electric origin               ... Center of mass
Position of electric origin             ...    11.338357     0.000000     0.000000

General magnetic properties:
Magnetizability                         ...  NO

EPR properties:
g-Tensor (aka g-matrix)                 ...  NO
Zero-Field splitting spin-orbit         ...  NO
Zero-field splitting spin-spin          ...  NO
Hyperfine couplings                     ...  NO (   0 nuclei)
Quadrupole couplings                    ...  NO (   0 nuclei)
Contact density                         ...  NO (   0 nuclei)

NMR properties:
Chemical shifts                         ...  NO (   0 nuclei)
Spin-rotation constants                 ...  NO (   0 nuclei)
Spin-spin couplings                     ...  NO (   0 nuclei,    0 pairs)

Choice of magnetic origin               ... GIAO
Position of magnetic origin             ...     0.000000     0.000000     0.000000

Properties with geometric perturbations:
SCF Hessian                             ...  NO
IR spectrum                             ...  NO
VCD spectrum                            ...  NO
X-ray spectroscopy properties:
SCF XES/XAS/RIXS spectra                ...  NO


-------------
DIPOLE MOMENT
-------------

Method             : CASSCF
Type of density    : Electron Density
Level              : Relaxed density
State              :   0
Multiplicity       :   1
Irrep              :   0
Energy             :  -198.8148308090125056 Eh
Relativity type    : 
Basis              : AO
                                X                 Y                 Z
Electronic contribution:     -0.000000001       0.000000000       0.000000000
Nuclear contribution   :      0.000000000       0.000000000       0.000000000
                        -----------------------------------------
Total Dipole Moment    :     -0.000000001       0.000000000       0.000000000
                        -----------------------------------------
Magnitude (a.u.)       :      0.000000001
Magnitude (Debye)      :      0.000000002



--------------------
Rotational spectrum 
--------------------
 
Rotational constants in cm-1:             0.000000             0.012324             0.012324 
Rotational constants in MHz :             0.000000           369.468336           369.468336 

Dipole components along the rotational axes: 
x,y,z [a.u.] :    -0.000000     0.000000     0.000000 
x,y,z [Debye]:    -0.000000     0.000000     0.000000 

 

Dipole moment calculation done in   0.0 sec 

Maximum memory used throughout the entire PROP-calculation: 2.5 MB

         *************************************************************
                                TRAJECTORY STEP   2
                  R  :  11.89909910
         *************************************************************
---------------------------------
CARTESIAN COORDINATES (ANGSTROEM)
---------------------------------
  F      0.000000    0.000000    0.000000
  F     11.899099    0.000000    0.000000

----------------------------
CARTESIAN COORDINATES (A.U.)
----------------------------
  NO LB      ZA    FRAG     MASS         X           Y           Z
   0 F     9.0000    0    18.998    0.000000    0.000000    0.000000
   1 F     9.0000    0    18.998   22.486039    0.000000    0.000000

--------------------------------
INTERNAL COORDINATES (ANGSTROEM)
--------------------------------
 F      0   0   0     0.000000000000     0.00000000     0.00000000
 F      1   0   0    11.899099099099     0.00000000     0.00000000

---------------------------
INTERNAL COORDINATES (A.U.)
---------------------------
 F      0   0   0     0.000000000000     0.00000000     0.00000000
 F      1   0   0    22.486038537686     0.00000000     0.00000000



           ************************************************************
           *        Program running with 8 parallel MPI-processes     *
           *              working on a common directory               *
           ************************************************************
------------------------------------------------------------------------------
                   ___                                                        
                  /   \      - P O W E R E D   B Y -                         
                 /     \                                                     
                 |  |  |   _    _      __       _____    __    __             
                 |  |  |  | |  | |    /  \     |  _  \  |  |  /  |          
                  \  \/   | |  | |   /    \    | | | |  |  | /  /          
                 / \  \   | |__| |  /  /\  \   | |_| |  |  |/  /          
                |  |  |   |  __  | /  /__\  \  |    /   |      \           
                |  |  |   | |  | | |   __   |  |    \   |  |\   \          
                \     /   | |  | | |  |  |  |  | |\  \  |  | \   \       
                 \___/    |_|  |_| |__|  |__|  |_| \__\ |__|  \__/        
                                                                              
                      - O R C A' S   B I G   F R I E N D -                    
                                      &                                       
                       - I N T E G R A L  F E E D E R -                       
                                                                              
 v1 FN, 2020, v2 2021, v3 2022-2024                                           
------------------------------------------------------------------------------


----------------------
SHARK INTEGRAL PACKAGE
----------------------

Number of atoms                             ...      2
Number of basis functions                   ...     80
Number of shells                            ...     28
Maximum angular momentum                    ...      3
Integral batch strategy                     ... SHARK/LIBINT Hybrid
RI-J (if used) integral strategy            ... SPLIT-RIJ (Revised 2003 algorithm where possible)
Printlevel                                  ...      1
Contraction scheme used                     ... SEGMENTED contraction
Prescreening option                         ... SCHWARTZ
   Thresh                                   ... 1.000e-10
   Tcut                                     ... 1.000e-11
   Tpresel                                  ... 1.000e-11 
Coulomb Range Separation                    ... NOT USED
Exchange Range Separation                   ... NOT USED
Multipole approximations                    ... NOT USED
Finite Nucleus Model                        ... NOT USED
CABS basis                                  ... NOT available
Auxiliary Coulomb fitting basis             ... NOT available
Auxiliary J/K fitting basis                 ... NOT available
Auxiliary Correlation fitting basis         ... NOT available
Auxiliary 'external' fitting basis          ... NOT available

Checking pre-screening integrals            ... done (  0.0 sec) Dimension = 28
Check shell pair data                       ... done (  0.0 sec)
Shell pair information
Shell pair cut-off parameter TPreSel        ...   1.0e-11
Total number of shell pairs                 ...       406
Shell pairs after pre-screening             ...       220
Total number of primitive shell pairs       ...      1125
Primitive shell pairs kept                  ...       600
          la=0 lb=0:     43 shell pairs
          la=1 lb=0:     52 shell pairs
          la=1 lb=1:     23 shell pairs
          la=2 lb=0:     36 shell pairs
          la=2 lb=1:     26 shell pairs
          la=2 lb=2:     12 shell pairs
          la=3 lb=0:     12 shell pairs
          la=3 lb=1:      8 shell pairs
          la=3 lb=2:      6 shell pairs
          la=3 lb=3:      2 shell pairs

Calculating one electron integrals          ... done (  0.0 sec)
Calculating Nuclear repulsion               ... done (  0.0 sec) ENN=      3.602235220946 Eh

Diagonalization of the overlap matrix:
Smallest eigenvalue                        ... 1.553e-02
Time for diagonalization                   ...    0.001 sec
Threshold for overlap eigenvalues          ... 1.000e-07
Number of eigenvalues below threshold      ... 0
Time for construction of square roots      ...    0.007 sec
Total time needed                          ...    0.016 sec

-------------------
DFT GRID GENERATION
-------------------

General Integration Accuracy     IntAcc      ... 4.388
Radial Grid Type                 RadialGrid  ... OptM3 with GC (2021)
Angular Grid (max. ang.)         AngularGrid ... 4 (Lebedev-302)
Angular grid pruning method      GridPruning ... 4 (adaptive)
Weight generation scheme         WeightScheme... mBecke (2022)
Basis function cutoff            BFCut       ... 1.0000e-10
Integration weight cutoff        WCut        ... 1.0000e-14
Partially contracted basis set               ... off
Rotationally invariant grid construction     ... off
Angular grids for H and He will be reduced by one unit
Diffuse basis detected: some atoms will have their outermost
                        angular grid increased by 1.

Total number of grid points                  ...    12920
Total number of batches                      ...      202
Average number of points per batch           ...       63
Average number of grid points per atom       ...     6460
Initializing property integral containers    ... done (  0.0 sec)

SHARK setup successfully completed in   0.2 seconds

Maximum memory used throughout the entire STARTUP-calculation: 12.5 MB


           ************************************************************
           *        Program running with 8 parallel MPI-processes     *
           *              working on a common directory               *
           ************************************************************
Occupation numbers will be reassigned to an Aufbau configuration
             **** ENERGY FILE WAS UPDATED (cas.en.tmp) ****
Finished Guess after   0.2 sec
Maximum memory used throughout the entire GUESS-calculation: 5.8 MB


           ************************************************************
           *        Program running with 8 parallel MPI-processes     *
           *              working on a common directory               *
           ************************************************************
-------------------------------------------------------------------------------
                              ORCA-CASSCF
-------------------------------------------------------------------------------

Building the CAS space              ... done (3 configurations for Mult=1)
Memory for address arrays  		      ... done
Make address arrays			      ... done
Memory for buffers 			      ... done
Setting up spin-function prototypes	      ... (MAXOPEN=2) 0 2 4 done
Trivial cases - DOMO's			      ... done (  0.0 MB)
Number of open shells			    ...  0
domo->virtual excitations			... done (  0.0 MB)
domo->somo excitations				... done (  0.0 MB)
somo->virtual excitations			... done (  0.0 MB)
somo->somo excitations				... done (  0.0 MB)
Number of open shells			    ...  2
domo->virtual excitations			... done (  0.0 MB)
domo->somo excitations				... done (  0.0 MB)
somo->virtual excitations			... done (  0.0 MB)
somo->somo excitations				... done (  0.0 MB)
Coupling container construction done

 CASSCF (estimated) memory needed     ... 1.2 MB
 CASPT2 (estimated) memory needed     ... 2.2 MB 


SYSTEM-SPECIFIC SETTINGS:
Number of active electrons          ...    2
Number of active orbitals           ...    2
Total number of electrons           ...   18
Total number of orbitals            ...   80

Determined orbital ranges:
   Internal       0 -    7 (   8 orbitals)
   Active         8 -    9 (   2 orbitals)
   External      10 -   79 (  70 orbitals)
Number of rotation parameters      ...    716

CI-STEP:
CI strategy                         ... General CI
Number of multiplicity blocks       ...    1
BLOCK  0 WEIGHT=   1.0000
  Multiplicity                      ...    1
  #(Configurations)                 ...    3
  #(CSFs)                           ...    3
  #(Roots)                          ...    1
    ROOT=0 WEIGHT=    1.000000

  PrintLevel                        ...    1
  N(GuessMat)                       ...      2048
  MaxDim(CI)                        ...        10
  MaxIter(CI)                       ...        64
  Energy Tolerance CI               ...  1.00e-08
  Residual Tolerance CI             ...  1.00e-08
  Shift(CI)                         ...  1.00e-04

INTEGRAL-TRANSFORMATION-STEP:
  Algorithm                         ... EXACT

ORBITAL-IMPROVEMENT-STEP:
  Algorithm                         ... SuperCI(PT)
  Default Parametrization           ... CAYLEY
  Act-Act rotations                 ... depends on algorithm used

  Note: SuperCI(PT) will ignore FreezeIE, FreezeAct and FreezeGrad. In general Default settings are encouraged.
        In conjunction with ShiftUp, ShiftDn or GradScaling the performance of SuperCI(PT) is less optimal.  

  MaxRot                            ... 2.00e-01 
  Max. no of vectors (DIIS)         ... 15
  DThresh (cut-off) metric          ... 1.00e-06
  Switch step at gradient           ...  3.00e-02 
  Switch step at iteration          ...        50   
  Switch step to                    ... SuperCI(PT)    

SCF-SETTINGS:
  Incremental                       ... on
  RIJCOSX approximation             ... off
  RI-JK approximation               ... off
  AO integral handling              ... DIRECT
  Integral Neglect Thresh           ...  1.00e-10
  Primitive cutoff TCut             ...  1.00e-11
  Energy convergence tolerance      ...  1.00e-07
  Orbital gradient convergence      ...  1.00e-03
  Max. number of iterations         ...        75  

PT2-SETTINGS:
  A PT2 calculation will be performed on top of the CASSCF wave function (PT2 = CASPT2)   
  CASPT2 Real Levelshift            ...  0.00e+00
  CASPT2 Im.  Levelshift            ...  0.00e+00
  CASPT2 IPEA Levelshift            ...  0.00e+00
 CI step strategy                   ... General CI
  D4C handling                      ... PS approximation (factorized) 
  CI truncation for D4C at          ...  1.00e-12
[...]
 De(Morse)        = 412.08913 eV             =3323723.3 cm**-1 RMS=4.58e-02
 D0(Morse)        = 412.08478 eV
 beta             =  -0.00763 au          RMS=1.66e-05
 we               =     70.1 cm**-1
 wexe             =      0.0 cm**-1
 Displacement   =    6.3442 Angstroem      = 11.98884 Bohr

Minimum found after 28 iterations
Equilibrium distance and its energy from the interpolated PES:
  Re      =   7.22712 Angstroem  ( 13.65729 Bohr)
  E(Re)   =  -199.234493 Eh 
  dE/dR   = -6.085e-10 (-8.758e-03 CHEB)
  d2E/dR2 =    0.000083 (   0.039831 CHEB) (   0.002319 NUM)
  d3E/dR3 =    0.000894 (  -0.075584 CHEB)

Spectroscopic constants:
  we =      15.2 cm**-1 (based on SPLINE)
  we =     332.9 cm**-1 (based on CHEB)
  we =      80.3 cm**-1 (based on NUM)

Performing Morse fit ...
Morse-Fit Results:
 Te(adiabatic)   =    7013.5 cm**-1         =  0.870 eV
 d2E/dR**2 (Morse)=      0.001658327 
 d3E/dR**3 (Morse)=      0.000069416 
 d4E/dR**4 (Morse)=      0.000002260 
 E0               =   -199.256513683 Eh  RMS=6.39e-05
 Re               =   8.07685 Angstroem      = 15.26304 Bohr RMS=3.56e-03)
 De(Morse)        = 115.89247 eV             = 934735.9 cm**-1 RMS=9.84e-03
 D0(Morse)        = 115.88826 eV
 beta             =  -0.01395 au          RMS=2.13e-05
 we               =     67.9 cm**-1
 wexe             =      0.0 cm**-1
 Displacement   =    6.6513 Angstroem      = 12.56917 Bohr

The Calculated Surface using the SCF energy
  12.00000000 -198.81483081
  11.89909910 -198.81483079
  11.79819820 -198.81483077
  11.69729730 -198.81483074
  11.59639640 -198.81483072
  11.49549550 -198.81483070
  11.39459459 -198.81483067
  11.29369369 -198.81483064
  11.19279279 -198.81483061
  11.09189189 -198.81483058
  10.99099099 -198.81483055
  10.89009009 -198.81483051
  10.78918919 -198.81483048
  10.68828829 -198.81483044
  10.58738739 -198.81483040
  10.48648649 -198.81483035
  10.38558559 -198.81483031
  10.28468468 -198.81483026
  10.18378378 -198.81483021
  10.08288288 -198.81483015
   9.98198198 -198.81483010
   9.88108108 -198.81483003
   9.78018018 -198.81482997
   9.67927928 -198.81482990
   9.57837838 -198.81482982
   9.47747748 -198.81482974
   9.37657658 -198.81482966
   9.27567568 -198.81482957
   9.17477477 -198.81482947
   9.07387387 -198.81482937
   8.97297297 -198.81482926
   8.87207207 -198.81482914
   8.77117117 -198.81482902
   8.67027027 -198.81482888
   8.56936937 -198.81482874
   8.46846847 -198.81482858
   8.36756757 -198.81482842
   8.26666667 -198.81482824
   8.16576577 -198.81482804
   8.06486486 -198.81482784
   7.96396396 -198.81482761
   7.86306306 -198.81482737
   7.76216216 -198.81482711
   7.66126126 -198.81482683
   7.56036036 -198.81482652
   7.45945946 -198.81482619
   7.35855856 -198.81482583
   7.25765766 -198.81482548
   7.15675676 -198.81482506
   7.05585586 -198.81482460
   6.95495495 -198.81482411
   6.85405405 -198.81482356
   6.75315315 -198.81482297
   6.65225225 -198.81482235
   6.55135135 -198.81482165
   6.45045045 -198.81482088
   6.34954955 -198.81482003
   6.24864865 -198.81481915
   6.14774775 -198.81481814
   6.04684685 -198.81481704
   5.94594595 -198.81481586
   5.84504505 -198.81481454
   5.74414414 -198.81481310
   5.64324324 -198.81481149
   5.54234234 -198.81480973
   5.44144144 -198.81480776
   5.34054054 -198.81480560
   5.23963964 -198.81480315
   5.13873874 -198.81480047
   5.03783784 -198.81479743
   4.93693694 -198.81479401
   4.83603604 -198.81479016
   4.73513514 -198.81478579
   4.63423423 -198.81478082
   4.53333333 -198.81477515
   4.43243243 -198.81476866
   4.33153153 -198.81476121
   4.23063063 -198.81475262
   4.12972973 -198.81474270
   4.02882883 -198.81473124
   3.92792793 -198.81471803
   3.82702703 -198.81470283
   3.72612613 -198.81468545
   3.62522523 -198.81466576
   3.52432432 -198.81464372
   3.42342342 -198.81461951
   3.32252252 -198.81459355
   3.22162162 -198.81456686
   3.12072072 -198.81454109
   3.01981982 -198.81451945
   2.91891892 -198.81450745
   2.81801802 -198.81451423
   2.71711712 -198.81455437
   2.61621622 -198.81465038
   2.51531532 -198.81483653
   2.41441441 -198.81516417
   2.31351351 -198.81571043
   2.21261261 -198.81658750
   2.11171171 -198.81794991
   2.01081081 -198.81998970
   1.90990991 -198.82290710
   1.80900901 -198.82682873
   1.70810811 -198.83164035
   1.60720721 -198.83669761
   1.50630631 -198.84036268
   1.40540541 -198.83927970
   1.30450450 -198.82721612
   1.20360360 -198.79309790
   1.10270270 -198.71735183
   1.00180180 -198.56469064
   0.90090090 -198.27018433
   0.80000000 -197.71243832

                        *******************************
                        *       FIT OF THE SCF PES    *
                        *******************************
-------------------------------
POTENTIAL ENERGY SURFACE =   0
-------------------------------

Minimum found after 16 iterations
Equilibrium distance and its energy from the interpolated PES:
  Re      =   1.46833 Angstroem  (  2.77474 Bohr)
  E(Re)   =  -198.840771 Eh 
  dE/dR   = 1.341e-09 (-5.603e-01 CHEB)
  d2E/dR2 =    0.178343 (   1.661475 CHEB) (   0.197872 NUM)
  d3E/dR3 =   -0.823739 (  -2.001209 CHEB)

Spectroscopic constants:
  we =     704.3 cm**-1 (based on SPLINE)
  we =    2149.8 cm**-1 (based on CHEB)
  we =     741.9 cm**-1 (based on NUM)

Performing Morse fit ...
Morse-Fit Results:
 Te(adiabatic)   =    5123.3 cm**-1         =  0.635 eV
 d2E/dR**2 (Morse)=      0.006562356 
 d3E/dR**3 (Morse)=     -0.037065674 
 d4E/dR**4 (Morse)=      0.162831926 
 E0               =   -198.817427756 Eh  RMS=2.34e-06
 Re               =   1.80444 Angstroem      =  3.40990 Bohr RMS=6.93e-05)
 De(Morse)        =   0.02519 eV             =    203.2 cm**-1 RMS=8.22e-07
 D0(Morse)        =   0.01681 eV
 beta             =   1.88274 au          RMS=1.58e-04
 we               =    135.1 cm**-1
 wexe             =     22.4 cm**-1
 Displacement   =    0.3361 Angstroem      =  0.63516 Bohr

The Calculated Surfaces using the CASPT2 energies
  12.00000000 -199.23449429
  11.89909910 -199.23449427
  11.79819820 -199.23449425
  11.69729730 -199.23449423
  11.59639640 -199.23449422
  11.49549550 -199.23449419
  11.39459459 -199.23449417
  11.29369369 -199.23449415
  11.19279279 -199.23449413
  11.09189189 -199.23449410
  10.99099099 -199.23449408
  10.89009009 -199.23449405
  10.78918919 -199.23449402
  10.68828829 -199.23449399
  10.58738739 -199.23449395
  10.48648649 -199.23449392
  10.38558559 -199.23449388
  10.28468468 -199.23449384
  10.18378378 -199.23449380
  10.08288288 -199.23449376
   9.98198198 -199.23449371
   9.88108108 -199.23449367
   9.78018018 -199.23449361
   9.67927928 -199.23449356
   9.57837838 -199.23449350
   9.47747748 -199.23449344
   9.37657658 -199.23449337
   9.27567568 -199.23449330
   9.17477477 -199.23449323
   9.07387387 -199.23449315
   8.97297297 -199.23449307
   8.87207207 -199.23449298
   8.77117117 -199.23449288
   8.67027027 -199.23449278
   8.56936937 -199.23449267
   8.46846847 -199.23449256
   8.36756757 -199.23449244
   8.26666667 -199.23449231
   8.16576577 -199.23449217
   8.06486486 -199.23449203
   7.96396396 -199.23449187
   7.86306306 -199.23449171
   7.76216216 -199.23449153
   7.66126126 -199.23449135
   7.56036036 -199.23449116
   7.45945946 -199.23449096
   7.35855856 -199.23449075
   7.25765766 -199.23449277
   7.15675676 -199.23449255
   7.05585586 -199.23449232
   6.95495495 -199.23449208
   6.85405405 -199.23449184
   6.75315315 -199.23449160
   6.65225225 -199.23448985
   6.55135135 -199.23448962
   6.45045045 -199.23448940
   6.34954955 -199.23448919
   6.24864865 -199.23448932
   6.14774775 -199.23448915
   6.04684685 -199.23448901
   5.94594595 -199.23448818
   5.84504505 -199.23448812
   5.74414414 -199.23448763
   5.64324324 -199.23448768
   5.54234234 -199.23448694
   5.44144144 -199.23448713
   5.34054054 -199.23448627
   5.23963964 -199.23448664
   5.13873874 -199.23448551
   5.03783784 -199.23448498
   4.93693694 -199.23448444
   4.83603604 -199.23448389
   4.73513514 -199.23448326
   4.63423423 -199.23448254
   4.53333333 -199.23448171
   4.43243243 -199.23448076
   4.33153153 -199.23447967
   4.23063063 -199.23447847
   4.12972973 -199.23447718
   4.02882883 -199.23447589
   3.92792793 -199.23447478
   3.82702703 -199.23447417
   3.72612613 -199.23447458
   3.62522523 -199.23447688
   3.52432432 -199.23448239
   3.42342342 -199.23449311
   3.32252252 -199.23451203
   3.22162162 -199.23454319
   3.12072072 -199.23459391
   3.01981982 -199.23467331
   2.91891892 -199.23479571
   2.81801802 -199.23498235
   2.71711712 -199.23526460
   2.61621622 -199.23568847
   2.51531532 -199.23631817
   2.41441441 -199.23725617
   2.31351351 -199.23863881
   2.21261261 -199.24065902
   2.11171171 -199.24357166
   2.01081081 -199.24767162
   1.90990991 -199.25324823
   1.80900901 -199.26044405
   1.70810811 -199.26905686
   1.60720721 -199.27819659
   1.50630631 -199.28586438
   1.40540541 -199.28826713
   1.30450450 -199.27876226
   1.20360360 -199.24600235
   1.10270270 -199.17046798
   1.00180180 -199.01743532
   0.90090090 -198.72330846
   0.80000000 -198.16826836

                        *******************************
                        *     FIT OF THE CASPT2 PES   *
                        *******************************
-------------------------------
POTENTIAL ENERGY SURFACE =   0
-------------------------------

Minimum found after 19 iterations
Equilibrium distance and its energy from the interpolated PES:
  Re      =   1.42553 Angstroem  (  2.69387 Bohr)
  E(Re)   =  -199.288470 Eh 
  dE/dR   = -2.781e-08 (-6.342e-01 CHEB)
  d2E/dR2 =    0.268656 (   1.871768 CHEB) (   0.199736 NUM)
  d3E/dR3 =   -0.884737 (  -2.054999 CHEB)

Spectroscopic constants:
  we =     864.5 cm**-1 (based on SPLINE)
  we =    2281.8 cm**-1 (based on CHEB)
  we =     745.4 cm**-1 (based on NUM)

Performing Morse fit ...
Morse-Fit Results:
 Te(adiabatic)   =     956.2 cm**-1         =  0.119 eV
 d2E/dR**2 (Morse)=      0.210131954 
 d3E/dR**3 (Morse)=     -0.913682956 
 d4E/dR**4 (Morse)=      3.089971535 
 E0               =   -199.284112632 Eh  RMS=2.80e-06
 Re               =   1.43715 Angstroem      =  2.71583 Bohr RMS=1.43e-05)
 De(Morse)        =   1.36097 eV             =  10977.0 cm**-1 RMS=2.67e-06
 D0(Morse)        =   1.31358 eV
 beta             =   1.44938 au          RMS=1.63e-05
 we               =    764.5 cm**-1
 wexe             =     13.3 cm**-1
 Displacement   =    0.0116 Angstroem      =  0.02196 Bohr

Minimum found after 25 iterations
Equilibrium distance and its energy from the interpolated PES:
  Re      =   5.24706 Angstroem  (  9.91550 Bohr)
  E(Re)   =  -199.234487 Eh 
  dE/dR   = -7.095e-10 (-2.475e-01 CHEB)
  d2E/dR2 =    0.000085 (   0.565498 CHEB) (  -0.023476 NUM)
  d3E/dR3 =   -0.001030 (   0.481008 CHEB)

Spectroscopic constants:
  we =      15.4 cm**-1 (based on SPLINE)
  we =    1254.2 cm**-1 (based on CHEB)
  we =      -nan cm**-1 (based on NUM)

Performing Morse fit ...
Morse-Fit Results:
 Te(adiabatic)   =   11071.8 cm**-1         =  1.373 eV
 d2E/dR**2 (Morse)=      0.000000000 
 d3E/dR**3 (Morse)=     -0.000000000 
 d4E/dR**4 (Morse)=      0.000000000 
 E0               =   -199.238022541 Eh  RMS=8.56e-06
 Re               =   4.34772 Angstroem      =  8.21600 Bohr RMS=1.36e-04)
 De(Morse)        =   0.00000 eV             =      0.0 cm**-1 RMS=4.06e-16
 D0(Morse)        =  -0.00000 eV
 beta             =   2.16256 au          RMS=1.51e-04
 we               =      0.0 cm**-1
 wexe             =     29.6 cm**-1
 Displacement   =    2.9222 Angstroem      =  5.52213 Bohr

Minimum found after 26 iterations
Equilibrium distance and its energy from the interpolated PES:
  Re      =   5.45628 Angstroem  ( 10.31087 Bohr)
  E(Re)   =  -199.234487 Eh 
  dE/dR   = -1.408e-09 (-2.612e-01 CHEB)
  d2E/dR2 =    0.000063 (   0.604066 CHEB) (  -0.022726 NUM)
  d3E/dR3 =   -0.000853 (   0.457651 CHEB)

Spectroscopic constants:
  we =      13.2 cm**-1 (based on SPLINE)
  we =    1296.2 cm**-1 (based on CHEB)
  we =      -nan cm**-1 (based on NUM)

Performing Morse fit ...
Error (ORCA_FITPES): Too many simplex iterations
Morse-Fit failed
Minimum found after 25 iterations
Equilibrium distance and its energy from the interpolated PES:
  Re      =   5.66651 Angstroem  ( 10.70815 Bohr)
  E(Re)   =  -199.234488 Eh 
  dE/dR   = -1.662e-10 (-2.628e-01 CHEB)
  d2E/dR2 =    0.000038 (   0.613987 CHEB) (  -0.021254 NUM)
  d3E/dR3 =   -0.000593 (   0.420314 CHEB)

Spectroscopic constants:
  we =      10.3 cm**-1 (based on SPLINE)
  we =    1306.8 cm**-1 (based on CHEB)
  we =      -nan cm**-1 (based on NUM)

Performing Morse fit ...
Morse-Fit Results:
 Te(adiabatic)   =     956.1 cm**-1         =  0.119 eV
 d2E/dR**2 (Morse)=      0.210131285 
 d3E/dR**3 (Morse)=     -0.913675736 
 d4E/dR**4 (Morse)=      3.089932546 
 E0               =   -199.284113295 Eh  RMS=2.17e-06
 Re               =   1.43716 Angstroem      =  2.71583 Bohr RMS=7.33e-06)
 De(Morse)        =   1.36098 eV             =  10977.0 cm**-1 RMS=2.30e-06
 D0(Morse)        =   1.31358 eV
 beta             =   1.44937 au          RMS=2.09e-05
 we               =    764.5 cm**-1
 wexe             =     13.3 cm**-1
 Displacement   =    0.0116 Angstroem      =  0.02196 Bohr

Minimum found after 33 iterations
Equilibrium distance and its energy from the interpolated PES:
  Re      =   6.25092 Angstroem  ( 11.81254 Bohr)
  E(Re)   =  -199.234489 Eh 
  dE/dR   = -5.053e-10 (-2.105e-01 CHEB)
  d2E/dR2 =    0.000021 (   0.505049 CHEB) (  -0.014262 NUM)
  d3E/dR3 =   -0.000251 (   0.261119 CHEB)

Spectroscopic constants:
  we =       7.6 cm**-1 (based on SPLINE)
  we =    1185.2 cm**-1 (based on CHEB)
  we =      -nan cm**-1 (based on NUM)

Performing Morse fit ...
Morse-Fit Results:
 Te(adiabatic)   =    6631.5 cm**-1         =  0.822 eV
 d2E/dR**2 (Morse)=      0.001764449 
 d3E/dR**3 (Morse)=      0.000040402 
 d4E/dR**4 (Morse)=      0.000000720 
 E0               =   -199.258254071 Eh  RMS=7.62e-05
 Re               =   7.76975 Angstroem      = 14.68271 Bohr RMS=8.22e-03)
 De(Morse)        = 412.08913 eV             =3323723.3 cm**-1 RMS=4.58e-02
 D0(Morse)        = 412.08478 eV
 beta             =  -0.00763 au          RMS=1.66e-05
 we               =     70.1 cm**-1
 wexe             =      0.0 cm**-1
 Displacement   =    6.3442 Angstroem      = 11.98884 Bohr

Minimum found after 28 iterations
Equilibrium distance and its energy from the interpolated PES:
  Re      =   7.22712 Angstroem  ( 13.65729 Bohr)
  E(Re)   =  -199.234493 Eh 
  dE/dR   = -6.085e-10 (-8.758e-03 CHEB)
  d2E/dR2 =    0.000083 (   0.039831 CHEB) (   0.002319 NUM)
  d3E/dR3 =    0.000894 (  -0.075584 CHEB)

Spectroscopic constants:
  we =      15.2 cm**-1 (based on SPLINE)
  we =     332.9 cm**-1 (based on CHEB)
  we =      80.3 cm**-1 (based on NUM)

Performing Morse fit ...
Morse-Fit Results:
 Te(adiabatic)   =    7013.5 cm**-1         =  0.870 eV
 d2E/dR**2 (Morse)=      0.001658327 
 d3E/dR**3 (Morse)=      0.000069416 
 d4E/dR**4 (Morse)=      0.000002260 
 E0               =   -199.256513683 Eh  RMS=6.39e-05
 Re               =   8.07685 Angstroem      = 15.26304 Bohr RMS=3.56e-03)
 De(Morse)        = 115.89247 eV             = 934735.9 cm**-1 RMS=9.84e-03
 D0(Morse)        = 115.88826 eV
 beta             =  -0.01395 au          RMS=2.13e-05
 we               =     67.9 cm**-1
 wexe             =      0.0 cm**-1
 Displacement   =    6.6513 Angstroem      = 12.56917 Bohr


--------------------------------
SUGGESTED CITATIONS FOR THIS RUN
--------------------------------

Below you find a list of papers that are relevant to this ORCA run
We neither can nor want to force you to cite these papers, but we appreciate if you do
You receive ORCA, which is the product of decades of hard work by many enthusiastic individuals, for free
The only thing we kindly ask in return is that you cite our papers,
We deeply appreciate it, if you show your appreciation for ORCA by not just citing the generic ORCA reference.

Please note that relegating all ORCA citations to the supporting information does *not* help us.
SI sections are not indexed - citations you put there will not count into any citation statistics
But we need these citations in order to attract the funding resources that allow us to do what we are doing

Therefore, if you are a happy ORCA user, please consider citing a few of the papers listed below in the main body of your paper

In addition to the list printed below, the program has created the file cas.bibtex that contains the list in bibtex format
You can import this file easily into all common literature databanks and citation aid programs


List of essential papers. We consider these as the minimum necessary citations

  1. Neese,F.
     Software update: the ORCA program system, version 5.0
     WIRES Comput. Molec. Sci., 2022 12(1)e1606
     doi.org/10.1002/wcms.1606

List of papers to cite with high priority. The work reported in these papers was absolutely
necessary for this run to complete.
Our perspective: the developers of density functionals and basis sets usually get cited in chemistry papers
Good! But without the algorithms to do something with them, the functionals or basis sets would not do anything.
Hence, in our opinion, the algorithm design and method developments papers are equally worthy of getting cited

  1. Kollmar,C.; Sivalingam,K.; Helmich-Paris,B.; Angeli,C.; Neese,F.
     A perturbation-based super-CI approach for the orbital optimization of a CASSCF wave function
     J. Comput. Chem., 2019 40 1463-1470
     doi.org/10.1002/jcc.25801
  2. Kollmar,C.; Sivalingam,K.; Neese,F.
     An efficient implementation of the NEVPT2 and CASPT2 methods avoiding higher-order density matrices
     J. Chem. Phys., 2021 155 234104
     doi.org/10.1063/5.0072129
  3. Neese,F.
     The SHARK Integral Generation and Digestion System
     J. Comp. Chem., 2022  1-16
     doi.org/10.1002/jcc.26942
  4. Ugandi,M.; Roemelt,M.
     A recursive formulation of one-electron coupling coefficients for spin-adapted configuration interaction calculations featuring many unpaired electrons
     Int. J. Quantum Chem., 2023 123 e27045
     doi.org/10.1002/qua.27045

List of suggested additional citations. These are papers that are important in the 'surrounding' of 
of this run, or papers that preceded the highly important papers. If you like your results we are grateful for a citation.

  1. Neese,F.
     The ORCA program system
     WIRES Comput. Molec. Sci., 2012 2(1)73-78
     doi.org/10.1002/wcms.81
  2. Neese,F.
     Software update: the ORCA program system, version 4.0
     WIRES Comput. Molec. Sci., 2018 8(1)1-6
     doi.org/10.1002/wcms.1327
  3. Kollmar,C.; Sivalingam,K.; Neese,F.
     An alternative choice of the zeroth-order Hamiltonian in CASPT2 theory
     J. Chem. Phys., 2020 152 214110
     doi.org/10.1063/5.0017762
  4. Neese,F.; Wennmohs,F.; Becker,U.; Riplinger,C.
     The ORCA quantum chemistry program package
     J. Chem. Phys., 2020 152 Art. No. L224108
     doi.org/10.1063/5.0004608

List of optional additional citations

  1. Neese,F.
     Approximate second-order SCF convergence for spin unrestricted wavefunctions
     Chem. Phys. Lett., 2000 325(1-3)93-98
     doi.org/10.1016/s0009-2614(00)00662-x

Timings for individual modules:

Sum of individual times          ...     4228.952 sec (=  70.483 min)
Startup calculation              ...       50.938 sec (=   0.849 min)   1.2 %
SCF iterations                   ...       41.353 sec (=   0.689 min)   1.0 %
CASSCF iterations                ...     4070.213 sec (=  67.837 min)  96.2 %
Property integrals               ...       33.750 sec (=   0.563 min)   0.8 %
Property calculations            ...       32.698 sec (=   0.545 min)   0.8 %
                             ****ORCA TERMINATED NORMALLY****
TOTAL RUN TIME: 0 days 1 hours 11 minutes 12 seconds 845 msec
