85
	Energy:     165.6686816
C         -5.20026        0.76251        0.50845
C         -5.70422        2.05526        1.14724
C         -3.74573        0.95209        0.02399
C         -5.78899        3.17912        0.06327
H         -5.00125        2.30485        1.96601
H         -6.69587        1.93240        1.63403
C         -3.42323        2.38784       -0.52131
H         -3.59474        0.16046       -0.74436
H         -3.01904        0.71991        0.83401
N         -4.67703        3.06795       -0.93259
C         -5.83663        4.55301        0.78115
H         -4.91486        4.74896        1.36032
H         -6.69352        4.58980        1.48812
H         -5.96727        5.38520        0.05712
C         -7.10557        3.03056       -0.73136
H         -7.15276        2.06995       -1.28223
H         -7.20006        3.84481       -1.48204
H         -7.98149        3.08168       -0.05130
C         -2.65129        3.22576        0.53363
H         -2.41727        4.23706        0.13882
H         -1.68840        2.73243        0.78730
H         -3.19354        3.34920        1.48351
C         -2.49072        2.23419       -1.74450
H         -2.20446        3.22304       -2.16250
H         -2.99882        1.65733       -2.54714
H         -1.55783        1.69791       -1.46425
O         -5.23322       -0.31609        1.42791
H         -5.81871        0.55290       -0.39396
C         -6.47634       -0.99506        1.39868
C         -7.75365       -2.94963        0.41157
C         -6.43103       -2.17387        0.41115
O         -5.39538       -3.05232        0.76857
H         -4.55990       -2.69445        0.36860
H         -7.32813       -0.31370        1.16739
H         -6.67285       -1.38170        2.42161
H         -6.26790       -1.79649       -0.62561
H         -7.67355       -3.80844       -0.28892
H         -7.91463       -3.38535        1.42856
O         -8.80648       -2.11569       -0.04180
C         -9.82465       -2.01507        0.93085
C        -10.92593       -1.10381        0.40578
H         -9.42484       -1.56756        1.86949
O        -11.92463       -0.97520        1.40140
C        -13.19183       -0.55685        0.90326
C        -13.95807       -1.72306        0.26380
H        -10.48282       -0.10692        0.18873
H        -11.31029       -1.56027       -0.53132
H        -10.26993       -3.01584        1.13523
H        -13.78114       -0.24841        1.79462
H        -14.98751       -1.40100       -0.00183
H        -13.46420       -2.08682       -0.65944
H        -14.03088       -2.56389        0.98565
C        -13.14123        0.68152       -0.01623
O        -12.47790        1.73233        0.65694
C        -12.55353        2.93898       -0.08393
C        -11.23854        3.70366        0.11244
C        -13.69217        3.80758        0.47329
C        -13.78991        5.17948       -0.24253
C        -11.23425        5.07403       -0.61472
N        -12.45647        5.84900       -0.25156
C        -10.00475        5.86670       -0.11712
C        -11.05613        4.88411       -2.14525
C        -14.76081        6.06369        0.57121
C        -14.40739        5.01615       -1.65727
H        -11.03734        5.86278       -2.66980
H        -10.08937        4.37563       -2.35235
H        -11.82010        4.25459       -2.61727
H         -9.06179        5.31954       -0.32874
H         -9.94269        6.85904       -0.61317
H        -10.06848        6.03720        0.97921
H        -14.37368        6.22070        1.60120
H        -14.88396        7.06145        0.09786
H        -15.76457        5.59114        0.64548
H        -15.43184        4.59242       -1.57565
H        -14.49200        5.99640       -2.17226
H        -13.86223        4.32557       -2.31217
H        -11.11757        3.87138        1.20720
H        -10.37908        3.08391       -0.22292
H        -13.47826        3.97249        1.55410
H        -14.66493        3.27252        0.41056
H        -12.68988        2.75029       -1.17250
H        -12.60929        0.43054       -0.96092
H        -14.19065        0.96921       -0.25691
O        -12.51004        7.01529       -0.94908
O         -4.42414        4.26384       -1.52869
