123
	Energy:     228.1654372
C         -5.35928        0.38396        0.84375
C         -5.58300        1.83352        1.28305
C         -3.90491        0.21711        0.35012
C         -5.48988        2.77033        0.03372
H         -4.81917        2.06074        2.05217
H         -6.55996        1.99770        1.78435
C         -3.33312        1.46326       -0.41598
H         -3.91983       -0.69964       -0.28160
H         -3.21898       -0.01468        1.19501
N         -4.44787        2.29746       -0.93123
C         -5.26203        4.22391        0.52290
H         -4.30356        4.33208        1.06442
H         -6.07738        4.53085        1.21361
H         -5.25815        4.94131       -0.32531
C         -6.83452        2.74900       -0.73001
H         -7.07878        1.74194       -1.12231
H         -6.79070        3.43289       -1.60452
H         -7.67068        3.07256       -0.07298
C         -2.38696        2.29412        0.49272
H         -1.97895        3.16785       -0.05874
H         -1.52694        1.67276        0.82357
H         -2.86911        2.66766        1.40932
C         -2.48289        0.94673       -1.59895
H         -2.02946        1.78594       -2.16875
H         -3.11393        0.35875       -2.29976
H         -1.65890        0.29398       -1.23678
O         -5.59570       -0.54516        1.89177
H         -6.01792        0.18030       -0.02704
C         -6.97455       -0.85570        2.01039
C         -8.88903       -2.28545        1.16904
C         -7.38428       -2.00766        1.07021
O         -6.67505       -3.17353        1.39836
H         -5.78376       -3.09965        0.96676
H         -7.61381        0.03733        1.83591
H         -7.17092       -1.15481        3.06202
H         -7.18783       -1.73131        0.00894
H         -9.12135       -3.11431        0.45875
H         -9.14449       -2.59690        2.20656
O         -9.58690       -1.10231        0.84009
C        -10.92318       -1.38570        0.49816
C        -11.68429       -0.06725        0.44042
H        -11.41473       -2.03743        1.25757
O        -13.00247       -0.30669       -0.00889
C        -13.93025        0.65009        0.48237
C        -15.33576        0.07950        0.22679
H        -11.64348        0.38508        1.45892
H        -11.16984        0.59679       -0.28781
H        -10.95956       -1.86314       -0.50674
H        -13.84390        0.77067        1.58773
C        -13.77277        2.02061       -0.21543
O        -12.55529        2.63253        0.16645
C        -12.37815        3.88103       -0.48408
C        -10.87944        4.22111       -0.44809
C        -13.12056        5.00013        0.27645
C        -12.90109        6.39218       -0.36623
C        -10.56000        5.59168       -1.10427
N        -11.44356        6.65138       -0.53790
C         -9.10188        5.95797       -0.74966
C        -10.63294        5.48809       -2.65131
C        -13.46219        7.45010        0.60979
C        -13.70845        6.51942       -1.68599
H        -10.39350        6.46137       -3.12938
H         -9.88903        4.74625       -3.01469
H        -11.59782        5.13940       -3.03834
H         -8.39570        5.19019       -1.12534
H         -8.81415        6.93244       -1.19926
H         -8.97584        6.03995        0.35163
H        -12.91929        7.41222        1.57886
H        -13.35067        8.47513        0.19559
H        -14.54095        7.27438        0.81101
H        -14.79116        6.38885       -1.48153
H        -13.57172        7.52173       -2.14405
H        -13.47059        5.75825       -2.43813
H        -10.57863        4.25293        0.62430
H        -10.28345        3.41398       -0.92935
H        -12.72676        5.00753        1.31836
H        -14.21059        4.80198        0.34301
H        -12.70015        3.82082       -1.54616
H        -13.82540        1.86215       -1.31670
H        -14.61142        2.66023        0.11780
O        -11.23904        7.83710       -1.17190
O         -3.99253        3.31652       -1.70815
O        -16.33549        0.92274        0.78202
H        -15.41882       -0.90903        0.72700
H        -15.46340       -0.12623       -0.86280
C        -17.14301        1.52811       -0.21578
C        -18.29692        0.58945       -0.59400
H        -18.91379        0.35602        0.30004
H        -17.89970       -0.36118       -1.00681
H        -18.94343        1.05580       -1.36720
C        -17.67754        2.85736        0.33320
H        -16.55274        1.78481       -1.12787
O        -18.42986        3.51126       -0.66987
H        -16.80391        3.47937        0.62953
H        -18.30847        2.64816        1.22728
C        -18.85391        4.79416       -0.24149
C        -20.18579        5.10176       -0.93843
C        -17.83374        5.85757       -0.68859
H        -19.01599        4.82520        0.85889
C        -20.73167        6.50968       -0.58802
H        -20.94179        4.32235       -0.69546
H        -19.99924        5.04716       -2.03569
C        -18.28476        7.29699       -0.32499
H        -17.73694        5.77305       -1.79508
H        -16.83058        5.65345       -0.25627
C        -21.31857        6.53193        0.84879
H        -22.15588        5.80510        0.92589
H        -21.72382        7.53510        1.09912
H        -20.61053        6.23959        1.63337
C        -21.89985        6.81115       -1.55328
H        -21.54461        6.81160       -2.60652
H        -22.34384        7.80796       -1.34373
H        -22.70354        6.04869       -1.45807
C        -18.11112        7.55619        1.19525
H        -18.64962        6.84994        1.83860
H        -18.42372        8.58739        1.46363
H        -17.04178        7.44751        1.47744
C        -17.34975        8.28521       -1.05755
H        -16.29215        8.13641       -0.75531
H        -17.62282        9.33749       -0.82820
H        -17.42066        8.14632       -2.15796
N        -19.67427        7.53715       -0.81214
O        -20.11161        8.76660       -0.42895
