16
Image 1 energy:-0.11245 
 C                   -0.03400000           1.34064000           0.46595000         
 C                    1.14263000           0.81617000          -0.30074000         
 C                    1.28767000          -0.49636000          -0.40058000         
 C                    0.26570000          -1.37189000           0.25912000         
 H                    0.38381000          -1.30594000           1.34122000         
 H                    0.38351000          -2.41513000          -0.03127000         
 H                    2.09636000          -0.94982000          -0.94953000         
 H                   -0.15041000           2.41589000           0.33677000         
 H                    0.11710000           1.14099000           1.52917000         
 H                    1.82311000           1.51041000          -0.76320000         
 C                   -1.31783000           0.63016000           0.01986000         
 C                   -1.15192000          -0.89358000          -0.09737000         
 H                   -1.60126000           1.03679000          -0.95537000         
 H                   -2.11697000           0.86997000           0.71709000         
 H                   -1.35552000          -1.20012000          -1.12717000         
 H                   -1.86886000          -1.40233000           0.54219000         
16
Image 2 energy:-0.11041 
 C                   -0.03911000           1.34033000           0.45521000         
 C                    1.15153000           0.81785000          -0.30142000         
 C                    1.29544000          -0.49549000          -0.40155000         
 C                    0.25609000          -1.36926000           0.24777000         
 H                    0.40343000          -1.31562000           1.33240000         
 H                    0.34814000          -2.41000000          -0.05993000         
 H                    2.13477000          -0.94619000          -0.90521000         
 H                   -0.17904000           2.41040000           0.30861000         
 H                    0.13028000           1.15618000           1.51926000         
 H                    1.86688000           1.50932000          -0.71725000         
 C                   -1.31859000           0.62986000           0.02893000         
 C                   -1.14885000          -0.89722000          -0.08759000         
 H                   -1.59917000           1.03791000          -0.93603000         
 H                   -2.16747000           0.83812000           0.71816000         
 H                   -1.35301000          -1.20563000          -1.10878000         
 H                   -1.92459000          -1.38487000           0.54705000         
16
Image 3 energy:-0.11189 
 C                   -0.03083000           1.34358000           0.47099000         
 C                    1.13983000           0.81686000          -0.30219000         
 C                    1.28411000          -0.49715000          -0.40248000         
 C                    0.26790000          -1.37387000           0.26367000         
 H                    0.39429000          -1.33116000           1.35896000         
 H                    0.39022000          -2.41493000          -0.04260000         
 H                    2.10623000          -0.95206000          -0.95186000         
 H                   -0.14063000           2.42046000           0.32642000         
 H                    0.12121000           1.16591000           1.55011000         
 H                    1.83510000           1.51551000          -0.76365000         
 C                   -1.32002000           0.62879000           0.01702000         
 C                   -1.15347000          -0.89361000          -0.09995000         
 H                   -1.60933000           1.03512000          -0.96319000         
 H                   -2.10771000           0.86605000           0.71248000         
 H                   -1.36278000          -1.20036000          -1.13466000         
 H                   -1.85937000          -1.39731000           0.53833000         
16
Image 4 energy:-0.11132 
 C                   -0.01930000           1.34449000           0.48524000         
 C                    1.12727000           0.81387000          -0.30476000         
 C                    1.27113000          -0.49655000          -0.40472000         
 C                    0.27868000          -1.37415000           0.27756000         
 H                    0.35468000          -1.31887000           1.35532000         
 H                    0.41381000          -2.41852000          -0.02772000         
 H                    2.05371000          -0.94821000          -0.99716000         
 H                   -0.11770000           2.42706000           0.34224000         
 H                    0.08437000           1.14584000           1.54329000         
 H                    1.78418000           1.50732000          -0.80981000         
 C                   -1.31420000           0.62823000           0.00918000         
 C                   -1.14702000          -0.89093000          -0.10725000         
 H                   -1.57185000           1.05129000          -0.95799000         
 H                   -2.13370000           0.86824000           0.69554000         
 H                   -1.32302000          -1.20877000          -1.13161000         
 H                   -1.88492000          -1.40263000           0.52082000         
16
Image 5 energy:-0.11085 
 C                   -0.03567000           1.32638000           0.48631000         
 C                    1.13031000           0.81428000          -0.30868000         
 C                    1.27412000          -0.49572000          -0.40864000         
 C                    0.25929000          -1.36052000           0.28120000         
 H                    0.39510000          -1.26970000           1.38223000         
 H                    0.39885000          -2.41409000           0.01647000         
 H                    2.02634000          -0.94727000          -1.00541000         
 H                   -0.13099000           2.41275000           0.38481000         
 H                    0.13526000           1.10321000           1.56352000         
 H                    1.75744000           1.50165000          -0.81856000         
 C                   -1.30060000           0.63585000           0.00899000         
 C                   -1.13266000          -0.89515000          -0.10852000         
 H                   -1.57935000           1.04043000          -0.98068000         
 H                   -2.11983000           0.87645000           0.68662000         
 H                   -1.33267000          -1.19640000          -1.15237000         
 H                   -1.86947000          -1.40616000           0.51094000         
16
Image 6 energy:-0.11178 
 C                   -0.02102000           1.31092000           0.49802000         
 C                    1.12847000           0.81686000          -0.31937000         
 C                    1.27265000          -0.49698000          -0.41962000         
 C                    0.27022000          -1.34412000           0.29529000         
 H                    0.37525000          -1.20931000           1.37526000         
 H                    0.38367000          -2.40149000           0.06379000         
 H                    2.07081000          -0.97199000          -0.99464000         
 H                   -0.14223000           2.39033000           0.42944000         
 H                    0.12860000           1.04173000           1.54708000         
 H                    1.79592000           1.53351000          -0.80340000         
 C                   -1.31442000           0.63271000           0.00253000         
 C                   -1.14669000          -0.89425000          -0.11462000         
 H                   -1.55187000           1.04563000          -0.97300000         
 H                   -2.12845000           0.87062000           0.68176000         
 H                   -1.30484000          -1.19670000          -1.14526000         
 H                   -1.87956000          -1.40177000           0.50676000         
16
Image 7 energy:-0.11075 
 C                   -0.01155000           1.30188000           0.50850000         
 C                    1.13806000           0.81764000          -0.31872000         
 C                    1.28214000          -0.49576000          -0.41895000         
 C                    0.27766000          -1.33488000           0.30717000         
 H                    0.36867000          -1.17279000           1.38393000         
 H                    0.42186000          -2.39657000           0.11237000         
 H                    2.01894000          -0.96635000          -1.05806000         
 H                   -0.10300000           2.38658000           0.47734000         
 H                    0.13029000           1.00385000           1.55015000         
 H                    1.74550000           1.52637000          -0.86783000         
 C                   -1.32919000           0.63587000          -0.00728000         
 C                   -1.16062000          -0.89906000          -0.12507000         
 H                   -1.57390000           1.06272000          -0.97835000         
 H                   -2.13854000           0.88100000           0.67887000         
 H                   -1.32264000          -1.21718000          -1.15346000         
 H                   -1.88702000          -1.41368000           0.50218000         
16
Image 8 energy:-0.10526 
 C                    0.01197000           1.30934000           0.51936000         
 C                    1.14528000           0.81917000          -0.31615000         
 C                    1.28954000          -0.49606000          -0.41651000         
 C                    0.30231000          -1.33859000           0.31716000         
 H                    0.36994000          -1.16319000           1.39228000         
 H                    0.45159000          -2.40071000           0.13129000         
 H                    1.99030000          -0.95824000          -1.09755000         
 H                   -0.07445000           2.39422000           0.49717000         
 H                    0.13376000           0.99364000           1.55701000         
 H                    1.71868000           1.51827000          -0.90857000         
 C                   -1.35789000           0.63127000          -0.01866000         
 C                   -1.18974000          -0.89915000          -0.13609000         
 H                   -1.59474000           1.07343000          -0.98457000         
 H                   -2.15332000           0.88844000           0.67922000         
 H                   -1.34076000          -1.23109000          -1.16158000         
 H                   -1.89977000          -1.42420000           0.50115000         
16
Image 9 energy:-0.09563 
 C                    0.03784000           1.31944000           0.52965000         
 C                    1.14975000           0.82079000          -0.31339000         
 C                    1.29429000          -0.49707000          -0.41395000         
 C                    0.32983000          -1.34427000           0.32622000         
 H                    0.37042000          -1.15809000           1.39936000         
 H                    0.47585000          -2.40639000           0.14325000         
 H                    1.96782000          -0.95120000          -1.12653000         
 H                   -0.05172000           2.40317000           0.51026000         
 H                    0.13546000           0.98776000           1.56327000         
 H                    1.69778000           1.51097000          -0.93866000         
 C                   -1.38688000           0.62356000          -0.03007000         
 C                   -1.21982000          -0.89627000          -0.14669000         
 H                   -1.60987000           1.08177000          -0.99080000         
 H                   -2.16422000           0.89525000           0.68130000         
 H                   -1.35382000          -1.24146000          -1.16923000         
 H                   -1.90882000          -1.43350000           0.50200000         
16
Image 10 energy:-0.08299 
 C                    0.06473000           1.33030000           0.53937000         
 C                    1.15262000           0.82271000          -0.31044000         
 C                    1.29755000          -0.49875000          -0.41127000         
 C                    0.35853000          -1.35038000           0.33465000         
 H                    0.36852000          -1.15389000           1.40496000         
 H                    0.49688000          -2.41249000           0.15231000         
 H                    1.94740000          -0.94505000          -1.15033000         
 H                   -0.03231000           2.41227000           0.52048000         
 H                    0.13460000           0.98246000           1.56816000         
 H                    1.67878000           1.50420000          -0.96346000         
 C                   -1.41561000           0.61394000          -0.04144000         
 C                   -1.25008000          -0.89150000          -0.15697000         
 H                   -1.62012000           1.08953000          -0.99654000         
 H                   -2.17118000           0.90221000           0.68501000         
 H                   -1.36225000          -1.25028000          -1.17625000         
 H                   -1.91400000          -1.44232000           0.50450000         
16
Image 11 energy:-0.06851 
 C                    0.09220000           1.34143000           0.54854000         
 C                    1.15430000           0.82512000          -0.30725000         
 C                    1.29976000          -0.50119000          -0.40845000         
 C                    0.38786000          -1.35657000           0.34249000         
 H                    0.36387000          -1.14975000           1.40887000         
 H                    0.51548000          -2.41869000           0.15955000         
 H                    1.92801000          -0.93965000          -1.17073000         
 H                   -0.01533000           2.42119000           0.52888000         
 H                    0.13100000           0.97688000           1.57132000         
 H                    1.66067000           1.49786000          -0.98477000         
 C                   -1.44404000           0.60289000          -0.05273000         
 C                   -1.28036000          -0.88529000          -0.16694000         
 H                   -1.62565000           1.09722000          -1.00148000         
 H                   -2.17406000           0.90948000           0.69020000         
 H                   -1.36610000          -1.25813000          -1.18239000         
 H                   -1.91511000          -1.45078000           0.50849000         
16
Image 12 energy:-0.05339 
 C                    0.11999000           1.35264000           0.55716000         
 C                    1.15499000           0.82816000          -0.30383000         
 C                    1.30115000          -0.50448000          -0.40550000         
 C                    0.41753000          -1.36267000           0.34980000         
 H                    0.35642000          -1.14543000           1.41078000         
 H                    0.53218000          -2.42475000           0.16551000         
 H                    1.90945000          -0.93498000          -1.18860000         
 H                   -0.00021000           2.42976000           0.53596000         
 H                    0.12467000           0.97081000           1.57243000         
 H                    1.64326000           1.49203000          -1.00345000         
 C                   -1.47216000           0.59072000          -0.06388000         
 C                   -1.31059000          -0.87795000          -0.17661000         
 H                   -1.62657000           1.10492000          -1.00527000         
 H                   -2.17286000           0.91695000           0.69659000         
 H                   -1.36545000          -1.26515000          -1.18733000         
 H                   -1.91219000          -1.45873000           0.51371000         
16
Image 13 energy:-0.03889 
 C                    0.14790000           1.36375000           0.56521000         
 C                    1.15486000           0.83195000          -0.30010000         
 C                    1.30189000          -0.50873000          -0.40238000         
 C                    0.44730000          -1.36858000           0.35657000         
 H                    0.34635000          -1.14089000           1.41047000         
 H                    0.54795000          -2.43056000           0.17076000         
 H                    1.89127000          -0.93088000          -1.20470000         
 H                    0.01406000           2.43800000           0.54227000         
 H                    0.11578000           0.96431000           1.57126000         
 H                    1.62614000           1.48657000          -1.02028000         
 C                   -1.49998000           0.57772000          -0.07487000         
 C                   -1.34073000          -0.86976000          -0.18600000         
 H                   -1.62317000           1.11259000          -1.00763000         
 H                   -2.16769000           0.92451000           0.70380000         
 H                   -1.36056000          -1.27143000          -1.19078000         
 H                   -1.90534000          -1.46603000           0.51978000         
16
Image 14 energy:-0.02613 
 C                    0.17577000           1.37480000           0.57282000         
 C                    1.15404000           0.83659000          -0.29616000         
 C                    1.30216000          -0.51398000          -0.39920000         
 C                    0.47700000          -1.37437000           0.36290000         
 H                    0.33408000          -1.13640000           1.40774000         
 H                    0.56350000          -2.43617000           0.17565000         
 H                    1.87382000          -0.92727000          -1.21910000         
 H                    0.02814000           2.44605000           0.54820000         
 H                    0.10469000           0.95774000           1.56767000         
 H                    1.60964000           1.48147000          -1.03535000         
 C                   -1.52758000           0.56422000          -0.08567000         
 C                   -1.37074000          -0.86107000          -0.19512000         
 H                   -1.61600000           1.11996000          -1.00839000         
 H                   -2.15902000           0.93186000           0.71127000         
 H                   -1.35204000          -1.27685000          -1.19255000         
 H                   -1.89512000          -1.47241000           0.52621000         
16
Image 15 energy:-0.01564 
 C                    0.20359000           1.38605000           0.58038000         
 C                    1.15282000           0.84183000          -0.29235000         
 C                    1.30216000          -0.51987000          -0.39623000         
 C                    0.50670000          -1.38035000           0.36916000         
 H                    0.32105000          -1.13242000           1.40323000         
 H                    0.57920000          -2.44186000           0.18035000         
 H                    1.85820000          -0.92424000          -1.23149000         
 H                    0.04235000           2.45422000           0.55396000         
 H                    0.09273000           0.95177000           1.56238000         
 H                    1.59484000           1.47703000          -1.04831000         
 C                   -1.55519000           0.55070000          -0.09631000         
 C                   -1.40077000          -0.85238000          -0.20408000         
 H                   -1.60673000           1.12651000          -1.00795000         
 H                   -2.14874000           0.93838000           0.71821000         
 H                   -1.34162000          -1.28120000          -1.19299000         
 H                   -1.88350000          -1.47757000           0.53225000         
16
Image 16 energy:-0.00789 
 C                    0.23133000           1.39765000           0.58819000         
 C                    1.15146000           0.84737000          -0.28887000         
 C                    1.30207000          -0.52604000          -0.39364000         
 C                    0.53641000          -1.38673000           0.37562000         
 H                    0.30838000          -1.12929000           1.39738000         
 H                    0.59631000          -2.44783000           0.18541000         
 H                    1.84461000          -0.92166000          -1.24207000         
 H                    0.05789000           2.46293000           0.56013000         
 H                    0.08091000           0.94690000           1.55589000         
 H                    1.58197000           1.47319000          -1.05939000         
 C                   -1.58303000           0.53776000          -0.10685000         
 C                   -1.43090000          -0.84432000          -0.21304000         
 H                   -1.59705000           1.13193000          -1.00675000         
 H                   -2.13853000           0.94376000           0.72398000         
 H                   -1.33101000          -1.28449000          -1.19250000         
 H                   -1.87221000          -1.48147000           0.53729000         
16
Image 17 energy:-0.00304 
 C                    0.25894000           1.40976000           0.59656000         
 C                    1.15024000           0.85287000          -0.28596000         
 C                    1.30211000          -0.53205000          -0.39160000         
 C                    0.56611000          -1.39372000           0.38255000         
 H                    0.29700000          -1.12742000           1.39054000         
 H                    0.61660000          -2.45442000           0.19147000         
 H                    1.83342000          -0.91938000          -1.25094000         
 H                    0.07642000           2.47276000           0.56744000         
 H                    0.07006000           0.94367000           1.54863000         
 H                    1.57141000           1.46990000          -1.06869000         
 C                   -1.61138000           0.52607000          -0.11729000         
 C                   -1.46124000          -0.83757000          -0.22210000         
 H                   -1.58855000           1.13600000          -1.00520000         
 H                   -2.13004000           0.94775000           0.72807000         
 H                   -1.32182000          -1.28675000          -1.19151000         
 H                   -1.86290000          -1.48415000           0.54084000         
16
Image 18 energy:-0.00064 
 C                    0.28645000           1.42242000           0.60581000         
 C                    1.14952000           0.85773000          -0.28399000         
 C                    1.30246000          -0.53720000          -0.39037000         
 C                    0.59585000          -1.40140000           0.39028000         
 H                    0.28897000          -1.12788000           1.38383000         
 H                    0.64132000          -2.46174000           0.19898000         
 H                    1.82608000          -0.91733000          -1.25763000         
 H                    0.09918000           2.48404000           0.57638000         
 H                    0.06201000           0.94337000           1.54188000         
 H                    1.56464000           1.46733000          -1.07574000         
 C                   -1.64052000           0.51651000          -0.12763000         
 C                   -1.49181000          -0.83305000          -0.23140000         
 H                   -1.58425000           1.13846000          -1.00438000         
 H                   -2.12664000           0.95004000           0.72977000         
 H                   -1.31704000          -1.28820000          -1.19109000         
 H                   -1.85892000          -1.48592000           0.54217000         
16
Image 19 energy:0.00000 
 C                    0.31383000           1.43526000           0.61560000         
 C                    1.14924000           0.86194000          -0.28268000         
 C                    1.30311000          -0.54152000          -0.38971000         
 C                    0.62554000          -1.40937000           0.39851000         
 H                    0.28456000          -1.13031000           1.37821000         
 H                    0.67018000          -2.46939000           0.20766000         
 H                    1.82201000          -0.91537000          -1.26258000         
 H                    0.12584000           2.49634000           0.58658000         
 H                    0.05706000           0.94561000           1.53660000         
 H                    1.56102000           1.46529000          -1.08100000         
 C                   -1.67008000           0.50849000          -0.13786000         
 C                   -1.52258000          -0.83014000          -0.24082000         
 H                   -1.58463000           1.13984000          -1.00477000         
 H                   -2.12858000           0.95116000           0.72943000         
 H                   -1.31715000          -1.28952000          -1.19173000         
 H                   -1.86050000          -1.48739000           0.54163000         
16
Image 20 energy:-0.00044 
 C                    0.34121000           1.44811000           0.62539000         
 C                    1.14895000           0.86615000          -0.28136000         
 C                    1.30375000          -0.54585000          -0.38905000         
 C                    0.65524000          -1.41733000           0.40675000         
 H                    0.28015000          -1.13275000           1.37260000         
 H                    0.69904000          -2.47704000           0.21635000         
 H                    1.81794000          -0.91340000          -1.26753000         
 H                    0.15250000           2.50863000           0.59678000         
 H                    0.05211000           0.94785000           1.53133000         
 H                    1.55740000           1.46325000          -1.08626000         
 C                   -1.69964000           0.50048000          -0.14809000         
 C                   -1.55335000          -0.82724000          -0.25025000         
 H                   -1.58501000           1.14122000          -1.00516000         
 H                   -2.13053000           0.95229000           0.72909000         
 H                   -1.31726000          -1.29083000          -1.19237000         
 H                   -1.86209000          -1.48885000           0.54108000         
16
Image 21 energy:-0.00148 
 C                    0.36801000           1.46095000           0.63563000         
 C                    1.14907000           0.86954000          -0.28077000         
 C                    1.30462000          -0.54917000          -0.38900000         
 C                    0.68441000          -1.42549000           0.41540000         
 H                    0.28013000          -1.13738000           1.36854000         
 H                    0.73396000          -2.48506000           0.22705000         
 H                    1.81702000          -0.91131000          -1.27087000         
 H                    0.18497000           2.52227000           0.60906000         
 H                    0.05098000           0.95296000           1.52803000         
 H                    1.55685000           1.46156000          -1.08986000         
 C                   -1.72917000           0.49431000          -0.15809000         
 C                   -1.58384000          -0.82616000          -0.25970000         
 H                   -1.59088000           1.14146000          -1.00704000         
 H                   -2.13891000           0.95216000           0.72626000         
 H                   -1.32307000          -1.29211000          -1.19434000         
 H                   -1.87036000          -1.49010000           0.53822000         
16
Image 22 energy:-0.00278 
 C                    0.39404000           1.47331000           0.64606000         
 C                    1.14973000           0.87188000          -0.28086000         
 C                    1.30578000          -0.55127000          -0.38943000         
 C                    0.71270000          -1.43338000           0.42429000         
 H                    0.28571000          -1.14484000           1.36675000         
 H                    0.77636000          -2.49298000           0.24001000         
 H                    1.81960000          -0.90901000          -1.27235000         
 H                    0.22484000           2.53710000           0.62376000         
 H                    0.05476000           0.96163000           1.52747000         
 H                    1.55982000           1.46014000          -1.09161000         
 C                   -1.75862000           0.49006000          -0.16776000         
 C                   -1.61374000          -0.82696000          -0.26911000         
 H                   -1.60397000           1.14051000          -1.01085000         