28
Image 1 energy:-0.10227 
 C                   -1.48700000           0.15216000           0.29065000         
 C                   -0.83659000           1.49322000           0.12584000         
 C                   -0.61995000          -1.00077000          -0.28449000         
 C                   -2.88588000           0.14863000          -0.32094000         
 H                   -1.58396000          -0.02777000           1.37108000         
 C                    0.45738000           1.62898000           0.36100000         
 C                    0.89080000          -0.67958000          -0.33923000         
 H                   -0.96468000          -1.18260000          -1.30844000         
 C                   -0.85920000          -2.27498000           0.52656000         
 C                    1.24809000           0.40368000           0.70097000         
 C                    1.31039000          -0.26359000          -1.74822000         
 H                    1.44360000          -1.58977000          -0.07952000         
 C                    2.74459000           0.68084000           0.79552000         
 H                    0.90966000           0.02818000           1.67645000         
 H                   -1.46440000           2.32663000          -0.15231000         
 H                    0.97131000           2.57432000           0.27358000         
 H                   -2.83111000           0.40273000          -1.37910000         
 H                   -3.52078000           0.87917000           0.17760000         
 H                   -3.35324000          -0.83170000          -0.22621000         
 H                    3.29914000          -0.24790000           0.92705000         
 H                    2.94929000           1.32817000           1.64923000         
 H                    3.10808000           1.17929000          -0.10206000         
 H                   -1.92406000          -2.49719000           0.59747000         
 H                   -0.46293000          -2.15973000           1.53683000         
 H                   -0.36613000          -3.12756000           0.06101000         
 H                    2.38439000          -0.11814000          -1.80634000         
 H                    0.81755000           0.66572000          -2.03343000         
 H                    1.03329000          -1.03823000          -2.46489000         
28
Image 2 energy:-0.10229 
 C                   -1.48551000           0.15476000           0.29752000         
 C                   -0.83749000           1.49642000           0.12479000         
 C                   -0.62094000          -0.99483000          -0.28432000         
 C                   -2.88819000           0.14239000          -0.30654000         
 H                   -1.57406000          -0.02366000           1.37871000         
 C                    0.45792000           1.63392000           0.35599000         
 C                    0.89111000          -0.67933000          -0.33240000         
 H                   -0.96014000          -1.16171000          -1.31217000         
 C                   -0.86881000          -2.28207000           0.50267000         
 C                    1.25034000           0.41091000           0.70220000         
 C                    1.31715000          -0.27782000          -1.74548000         
 H                    1.44139000          -1.58835000          -0.06570000         
 C                    2.74701000           0.68820000           0.79602000         
 H                    0.91193000           0.04043000           1.67917000         
 H                   -1.46556000           2.32630000          -0.15828000         
 H                    0.97065000           2.57869000           0.26316000         
 H                   -2.84034000           0.35745000          -1.37368000         
 H                   -3.51196000           0.89566000           0.16919000         
 H                   -3.36294000          -0.82603000          -0.17415000         
 H                    3.29872000          -0.23566000           0.96007000         
 H                    2.94713000           1.35818000           1.62999000         
 H                    3.11761000           1.15791000          -0.11083000         
 H                   -1.92929000          -2.51882000           0.53950000         
 H                   -0.50513000          -2.18146000           1.52273000         
 H                   -0.35272000          -3.11799000           0.03626000         
 H                    2.39180000          -0.15262000          -1.80716000         
 H                    0.84342000           0.65748000          -2.03481000         
 H                    1.02486000          -1.04906000          -2.45725000         
28
Image 3 energy:-0.10197 
 C                   -1.48689000           0.15531000           0.29478000         
 C                   -0.83710000           1.49688000           0.12573000         
 C                   -0.62100000          -0.99661000          -0.28354000         
 C                   -2.89026000           0.14501000          -0.30637000         
 H                   -1.57773000          -0.02357000           1.37513000         
 C                    0.45804000           1.63411000           0.36082000         
 C                    0.88996000          -0.67786000          -0.33336000         
 H                   -0.96017000          -1.16875000          -1.31110000         
 C                   -0.86486000          -2.28704000           0.50243000         
 C                    1.25034000           0.41042000           0.70491000         
 C                    1.31767000          -0.27508000          -1.74735000         
 H                    1.43932000          -1.58731000          -0.06858000         
 C                    2.74695000           0.68714000           0.79295000         
 H                    0.91301000           0.04022000           1.68130000         
 H                   -1.46268000           2.32583000          -0.15744000         
 H                    0.96993000           2.57919000           0.27331000         
 H                   -2.83803000           0.30707000          -1.38680000         
 H                   -3.49261000           0.93623000           0.13791000         
 H                   -3.38610000          -0.80678000          -0.12541000         
 H                    3.29627000          -0.23081000           1.00452000         
 H                    2.94278000           1.39764000           1.59747000         
 H                    3.12412000           1.11443000          -0.13444000         
 H                   -1.92307000          -2.55299000           0.49291000         
 H                   -0.54717000          -2.16814000           1.53677000         
 H                   -0.30645000          -3.11312000           0.06299000         
 H                    2.39070000          -0.18284000          -1.81501000         
 H                    0.87556000           0.68375000          -2.01922000         
 H                    0.98468000          -1.03031000          -2.46588000         
28
Image 4 energy:-0.10212 
 C                   -1.48333000           0.15014000           0.29597000         
 C                   -0.83533000           1.49273000           0.12355000         
 C                   -0.62085000          -0.99700000          -0.28407000         
 C                   -2.88499000           0.14352000          -0.31315000         
 H                   -1.57616000          -0.02485000           1.37963000         
 C                    0.45782000           1.63449000           0.35812000         
 C                    0.89146000          -0.68085000          -0.33544000         
 H                   -0.96332000          -1.16886000          -1.30878000         
 C                   -0.86687000          -2.27653000           0.51369000         
 C                    1.25050000           0.40553000           0.69772000         
 C                    1.30939000          -0.26783000          -1.74635000         
 H                    1.44526000          -1.58939000          -0.07365000         
 C                    2.74534000           0.68532000           0.79858000         
 H                    0.91239000           0.03464000           1.67594000         
 H                   -1.46692000           2.33036000          -0.15156000         
 H                    0.97128000           2.57859000           0.26928000         
 H                   -2.83391000           0.35881000          -1.37807000         
 H                   -3.51549000           0.89931000           0.15460000         
 H                   -3.36675000          -0.82492000          -0.17634000         
 H                    3.29506000          -0.23881000           0.96287000         
 H                    2.94241000           1.35691000           1.63131000         
 H                    3.11668000           1.15211000          -0.10939000         
 H                   -1.92598000          -2.51649000           0.54522000         
 H                   -0.51068000          -2.16927000           1.53834000         
 H                   -0.33961000          -3.11578000           0.05516000         
 H                    2.39834000          -0.15973000          -1.81941000         
 H                    0.84072000           0.67311000          -2.02153000         
 H                    1.01569000          -1.02302000          -2.46692000         
28
Image 5 energy:-0.10220 
 C                   -1.48680000           0.15841000           0.29808000         
 C                   -0.83930000           1.50003000           0.12639000         
 C                   -0.62167000          -0.99542000          -0.28366000         
 C                   -2.88669000           0.14396000          -0.31343000         
 H                   -1.57604000          -0.02191000           1.37891000         
 C                    0.45737000           1.63273000           0.35375000         
 C                    0.89008000          -0.67886000          -0.33515000         
 H                   -0.96387000          -1.16374000          -1.31157000         
 C                   -0.85957000          -2.28003000           0.51006000         
 C                    1.24713000           0.41048000           0.70286000         
 C                    1.31485000          -0.27961000          -1.74778000         
 H                    1.44318000          -1.58806000          -0.06843000         
 C                    2.74530000           0.68248000           0.79885000         
 H                    0.90765000           0.03789000           1.67822000         
 H                   -1.46725000           2.32813000          -0.15614000         
 H                    0.97104000           2.57837000           0.26089000         
 H                   -2.83859000           0.40860000          -1.36849000         
 H                   -3.52699000           0.86029000           0.19329000         
 H                   -3.33905000          -0.83935000          -0.23293000         
 H                    3.29815000          -0.24798000           0.91734000         
 H                    2.95487000           1.31421000           1.65966000         
 H                    3.10907000           1.19113000          -0.09008000         
 H                   -1.92101000          -2.49922000           0.59659000         
 H                   -0.44716000          -2.18596000           1.51343000         
 H                   -0.38244000          -3.12480000           0.02561000         
 H                    2.38353000          -0.12010000          -1.80034000         
 H                    0.81271000           0.63656000          -2.04903000         
 H                    1.05013000          -1.06647000          -2.45611000         
28
Image 6 energy:-0.10204 
 C                   -1.48326000           0.15374000           0.30131000         
 C                   -0.83797000           1.49613000           0.12209000         
 C                   -0.62437000          -0.99002000          -0.29007000         
 C                   -2.89243000           0.14351000          -0.29332000         
 H                   -1.56939000          -0.02993000           1.38333000         
 C                    0.45617000           1.64437000           0.34852000         
 C                    0.88889000          -0.67757000          -0.33029000         
 H                   -0.96640000          -1.14840000          -1.31703000         
 C                   -0.86621000          -2.28066000           0.49277000         
 C                    1.24777000           0.41722000           0.69618000         
 C                    1.32693000          -0.29682000          -1.74488000         
 H                    1.43443000          -1.58466000          -0.05117000         
 C                    2.74415000           0.68809000           0.80558000         
 H                    0.90050000           0.04942000           1.67194000         
 H                   -1.46996000           2.33001000          -0.15755000         
 H                    0.96946000           2.58670000           0.24790000         
 H                   -2.85272000           0.42685000          -1.34697000         
 H                   -3.53959000           0.84790000           0.22692000         
 H                   -3.34399000          -0.84599000          -0.22015000         
 H                    3.29006000          -0.24794000           0.90179000         
 H                    2.95419000           1.29694000           1.68176000         
 H                    3.11432000           1.21349000          -0.07112000         
 H                   -1.92746000          -2.48885000           0.59618000         
 H                   -0.43534000          -2.20469000           1.49040000         
 H                   -0.39456000          -3.12411000          -0.01583000         
 H                    2.40438000          -0.12855000          -1.79017000         
 H                    0.81607000           0.60380000          -2.07827000         
 H                    1.09630000          -1.10003000          -2.43673000         
28
Image 7 energy:-0.10209 
 C                   -1.48407000           0.15983000           0.30786000         
 C                   -0.84505000           1.50562000           0.11801000         
 C                   -0.61811000          -0.98387000          -0.29186000         
 C                   -2.89503000           0.13762000          -0.27404000         
 H                   -1.54957000          -0.01616000           1.39042000         
 C                    0.45414000           1.63646000           0.33634000         
 C                    0.89712000          -0.68078000          -0.32939000         
 H                   -0.95336000          -1.13218000          -1.32457000         
 C                   -0.87371000          -2.28057000           0.47573000         
 C                    1.24322000           0.41771000           0.70160000         
 C                    1.34348000          -0.30341000          -1.74224000         
 H                    1.43745000          -1.59206000          -0.04389000         
 C                    2.74013000           0.69020000           0.80429000         
 H                    0.89744000           0.05405000           1.67735000         
 H                   -1.47518000           2.33098000          -0.17352000         
 H                    0.96799000           2.58208000           0.23130000         
 H                   -2.87761000           0.39714000          -1.33047000         
 H                   -3.52778000           0.85964000           0.24304000         
 H                   -3.34652000          -0.84714000          -0.16918000         
 H                    3.29276000          -0.24313000           0.90954000         
 H                    2.94013000           1.30677000           1.67947000         
 H                    3.10730000           1.21707000          -0.07109000         
 H                   -1.93866000          -2.49308000           0.54686000         
 H                   -0.47265000          -2.21370000           1.48553000         
 H                   -0.39989000          -3.11680000          -0.02855000         
 H                    2.41534000          -0.14408000          -1.78174000         
 H                    0.84277000           0.60180000          -2.07079000         
 H                    1.09099000          -1.10910000          -2.43564000         
28
Image 8 energy:-0.10199 
 C                   -1.47683000           0.15701000           0.30709000         
 C                   -0.83628000           1.49682000           0.10387000         
 C                   -0.62733000          -0.98917000          -0.29499000         
 C                   -2.89440000           0.13967000          -0.26183000         
 H                   -1.53481000          -0.01772000           1.39040000         
 C                    0.45679000           1.64222000           0.33402000         
 C                    0.88811000          -0.68138000          -0.32228000         
 H                   -0.95941000          -1.12803000          -1.32682000         
 C                   -0.88281000          -2.29193000           0.46581000         
 C                    1.24845000           0.41879000           0.69803000         
 C                    1.34058000          -0.29587000          -1.73056000         
 H                    1.43415000          -1.58500000          -0.03672000         
 C                    2.74278000           0.69893000           0.80751000         
 H                    0.90206000           0.06206000           1.67865000         
 H                   -1.46957000           2.31981000          -0.19709000         
 H                    0.96834000           2.58215000           0.21720000         
 H                   -2.87664000           0.37169000          -1.33434000         
 H                   -3.50397000           0.87700000           0.25232000         
 H                   -3.35499000          -0.83629000          -0.13976000         
 H                    3.29821000          -0.23646000           0.91847000         
 H                    2.94532000           1.32429000           1.67814000         
 H                    3.10532000           1.21879000          -0.07882000         
 H                   -1.94879000          -2.50778000           0.51287000         
 H                   -0.49870000          -2.21301000           1.48331000         
 H                   -0.38519000          -3.12779000          -0.02430000         
 H                    2.42056000          -0.14971000          -1.78017000         
 H                    0.85719000           0.62289000          -2.05543000         
 H                    1.08840000          -1.09057000          -2.42803000         
28
Image 9 energy:-0.10207 
 C                   -1.48127000           0.15358000           0.30635000         
 C                   -0.83926000           1.49468000           0.10569000         
 C                   -0.61760000          -0.99065000          -0.28976000         
 C                   -2.89952000           0.14226000          -0.26153000         
 H                   -1.53963000          -0.02065000           1.39192000         
 C                    0.45841000           1.63806000           0.32788000         
 C                    0.89788000          -0.68089000          -0.31762000         
 H                   -0.95043000          -1.12893000          -1.32626000         
 C                   -0.88510000          -2.29330000           0.46076000         
 C                    1.24485000           0.42483000           0.70601000         
 C                    1.33986000          -0.28760000          -1.72708000         
 H                    1.44198000          -1.59029000          -0.03319000         
 C                    2.74412000           0.69281000           0.79841000         
 H                    0.89890000           0.07069000           1.68676000         
 H                   -1.46631000           2.31586000          -0.20296000         
 H                    0.97450000           2.57965000           0.20475000         
 H                   -2.87518000           0.34227000          -1.32638000         
 H                   -3.51017000           0.91166000           0.21052000         
 H                   -3.38487000          -0.81822000          -0.09815000         
 H                    3.28849000          -0.23066000           0.97738000         
 H                    2.95043000           1.37375000           1.62161000         
 H                    3.12206000           1.14607000          -0.11342000         
 H                   -1.94536000          -2.52774000           0.48176000         
 H                   -0.53062000          -2.23173000           1.48724000         
 H                   -0.37002000          -3.11858000          -0.02699000         
 H                    2.41758000          -0.16940000          -1.76796000         
 H                    0.87080000           0.64939000          -2.01606000         
 H                    1.05605000          -1.05110000          -2.44975000         
28
Image 10 energy:-0.10204 
 C                   -1.47852000           0.16163000           0.31196000         
 C                   -0.83770000           1.49987000           0.11096000         
 C                   -0.62617000          -0.98486000          -0.29624000         
 C                   -2.89819000           0.13789000          -0.25383000         
 H                   -1.53447000          -0.01627000           1.39463000         
 C                    0.45742000           1.63906000           0.33235000         
 C                    0.89015000          -0.68181000          -0.32407000         
 H                   -0.96101000          -1.12116000          -1.32909000         
 C                   -0.88294000          -2.29699000           0.45132000         
 C                    1.24866000           0.42138000           0.69636000         
 C                    1.34641000          -0.30071000          -1.73033000         
 H                    1.42884000          -1.59135000          -0.03422000         
 C                    2.74280000           0.70309000           0.80724000         
 H                    0.90148000           0.06116000           1.67465000         
 H                   -1.47039000           2.32367000          -0.18317000         
 H                    0.97054000           2.58199000           0.22543000         
 H                   -2.87822000           0.28536000          -1.33723000         
 H                   -3.49974000           0.92679000           0.19229000         
 H                   -3.38208000          -0.81191000          -0.04825000         
 H                    3.28995000          -0.21193000           1.03359000         
 H                    2.92436000           1.41756000           1.60876000         
 H                    3.13211000           1.12260000          -0.11727000         
 H                   -1.93992000          -2.55121000           0.44209000         
 H                   -0.56241000          -2.21268000           1.48696000         
 H                   -0.33944000          -3.11503000          -0.01127000         
 H                    2.42882000          -0.21438000          -1.77910000         
 H                    0.90320000           0.64233000          -2.03781000         
 H                    1.04190000          -1.07051000          -2.43972000         
28
Image 11 energy:-0.10195 
 C                   -1.47651000           0.15364000           0.30453000         
 C                   -0.84275000           1.50274000           0.11229000         
 C                   -0.61541000          -0.98156000          -0.30201000         
 C                   -2.90041000           0.13460000          -0.24301000         
 H                   -1.52519000          -0.01835000           1.38936000         
 C                    0.45478000           1.64337000           0.33922000         
 C                    0.90207000          -0.68015000          -0.32595000         
 H                   -0.94210000          -1.11468000          -1.33865000         
 C                   -0.88874000          -2.28098000           0.45031000         
 C                    1.24180000           0.42150000           0.70337000         
 C                    1.35156000          -0.32008000          -1.74767000         
 H                    1.43891000          -1.58838000          -0.03425000         
 C                    2.73624000           0.70309000           0.81210000         
 H                    0.89410000           0.06234000           1.68120000         
 H                   -1.47457000           2.32924000          -0.17448000         
 H                    0.96788000           2.58770000           0.24208000         
 H                   -2.89727000           0.29951000          -1.31755000         
 H                   -3.48731000           0.92758000           0.22384000         
 H                   -3.38892000          -0.81778000          -0.04058000         
 H                    3.28819000          -0.21502000           1.01630000         
 H                    2.91749000           1.40307000           1.62956000         
 H                    3.12049000           1.14687000          -0.10465000         
 H                   -1.94835000          -2.52822000           0.43139000         
 H                   -0.56962000          -2.19456000           1.48824000         
 H                   -0.33568000          -3.10396000          -0.00981000         
 H                    2.43384000          -0.22218000          -1.80730000         
 H                    0.90290000           0.62058000          -2.05777000         
 H                    1.05049000          -1.10011000          -2.44555000         
28
Image 12 energy:-0.10222 
 C                   -1.47709000           0.15801000           0.31102000         
 C                   -0.83900000           1.49828000           0.10348000         
 C                   -0.62265000          -0.98483000          -0.29907000         
 C                   -2.90103000           0.13857000          -0.24177000         
 H                   -1.52443000          -0.01820000           1.39635000         
 C                    0.45618000           1.64228000           0.32571000         
 C                    0.89371000          -0.68054000          -0.31941000         
 H                   -0.95508000          -1.11272000          -1.33386000         
 C                   -0.88832000          -2.29354000           0.44555000         
 C                    1.24445000           0.42564000           0.69983000         
 C                    1.35455000          -0.30845000          -1.72843000         
 H                    1.43225000          -1.58810000          -0.02356000         
 C                    2.74028000           0.70269000           0.80772000         
 H                    0.89465000           0.06965000           1.67880000         
 H                   -1.47127000           2.31988000          -0.19985000         
 H                    0.97076000           2.58262000           0.20725000         
 H                   -2.89423000           0.33725000          -1.31206000         
 H                   -3.50576000           0.89925000           0.24517000         
 H                   -3.37385000          -0.82530000          -0.07574000         
 H                    3.28834000          -0.22377000           0.96065000         
 H                    2.93656000           1.35942000           1.65173000         
 H                    3.11721000           1.18393000          -0.09045000         
 H                   -1.94994000          -2.52488000           0.46512000         
 H                   -0.53476000          -2.22851000           1.47217000         
 H                   -0.37415000          -3.11805000          -0.04199000         
 H                    2.43419000          -0.18894000          -1.76340000         
 H                    0.88933000           0.62002000          -2.04977000         
 H                    1.08355000          -1.09313000          -2.43226000         
28
Image 13 energy:-0.10207 
 C                   -1.47840000           0.15800000           0.31405000         
 C                   -0.84098000           1.49865000           0.10436000         
 C                   -0.62001000          -0.98099000          -0.29954000         
 C                   -2.90304000           0.14036000          -0.23929000         
 H                   -1.52696000          -0.01993000           1.40048000         
 C                    0.45464000           1.64456000           0.32447000         
 C                    0.89607000          -0.67560000          -0.31612000         
 H                   -0.95267000          -1.10335000          -1.33349000         
 C                   -0.88705000          -2.29291000           0.44025000         
 C                    1.24246000           0.43056000           0.70407000         
 C                    1.35862000          -0.32387000          -1.73426000         
 H                    1.43467000          -1.58102000          -0.01691000         
 C                    2.73866000           0.70317000           0.80928000         
 H                    0.88886000           0.07497000           1.68086000         
 H                   -1.47430000           2.31988000          -0.19930000         
 H                    0.96848000           2.58258000           0.20038000         