25
Image 1 energy:-0.02678 
 C                   -1.59548000          -1.10516000           0.74854000         
 C                   -0.79819000          -0.72497000           1.74814000         
 C                   -0.83106000           1.30847000          -1.68976000         
 N                   -2.85993000          -1.67078000           0.90038000         
 H                   -1.27715000          -1.02042000          -0.27914000         
 C                    0.57262000          -0.27796000           1.66004000         
 C                    0.33686000           1.77662000          -1.26633000         
 H                   -1.75868000           1.67304000          -1.26987000         
 N                   -0.99929000           0.39972000          -2.73143000         
 C                    1.46844000          -0.61214000           0.72035000         
 C                    0.48286000           2.82782000          -0.21705000         
 H                    1.25528000           1.40676000          -1.70350000         
 O                    2.72122000          -0.10223000           0.72004000         
 O                    1.28187000          -1.50781000          -0.29077000         
 H                   -1.20437000          -0.74720000           2.75466000         
 H                    0.92034000           0.38455000           2.43719000         
 H                    1.12868000           2.47101000           0.59107000         
 H                   -0.49075000           3.09282000           0.20024000         
 H                    0.94278000           3.72491000          -0.64311000         
 H                    3.19644000          -0.48817000          -0.03053000         
 H                    0.46207000          -1.99418000          -0.12588000         
 H                   -3.52863000          -1.41805000           0.18611000         
 H                   -3.23852000          -1.57280000           1.83345000         
 H                   -1.82161000          -0.18720000          -2.65785000         
 H                   -0.16312000          -0.12684000          -2.95284000         
25
Image 2 energy:-0.02699 
 C                   -1.59179000          -1.09526000           0.73705000         
 C                   -0.79226000          -0.74462000           1.75253000         
 C                   -0.83848000           1.30149000          -1.68573000         
 N                   -2.85509000          -1.65610000           0.89707000         
 H                   -1.29146000          -1.00153000          -0.29602000         
 C                    0.57523000          -0.27759000           1.65869000         
 C                    0.32573000           1.77942000          -1.26573000         
 H                   -1.77150000           1.66325000          -1.27374000         
 N                   -0.99515000           0.39296000          -2.73141000         
 C                    1.47027000          -0.61156000           0.72329000         
 C                    0.47832000           2.83262000          -0.22006000         
 H                    1.24375000           1.40697000          -1.70175000         
 O                    2.72550000          -0.10644000           0.72473000         
 O                    1.27352000          -1.50550000          -0.29022000         
 H                   -1.19502000          -0.78320000           2.75735000         
 H                    0.92236000           0.37649000           2.44110000         
 H                    1.09846000           2.46578000           0.59464000         
 H                   -0.48674000           3.12319000           0.17765000         
 H                    0.96477000           3.71575000          -0.63411000         
 H                    3.19624000          -0.48975000          -0.02415000         
 H                    0.45158000          -1.98505000          -0.12586000         
 H                   -3.53944000          -1.37138000           0.21295000         
 H                   -3.21142000          -1.58138000           1.84056000         
 H                   -1.77201000          -0.24231000          -2.63481000         
 H                   -0.13932000          -0.08096000          -2.98496000         
25
Image 3 energy:-0.02631 
 C                   -1.59407000          -1.09848000           0.73742000         
 C                   -0.79435000          -0.73748000           1.74452000         
 C                   -0.83961000           1.30276000          -1.68401000         
 N                   -2.85497000          -1.65448000           0.89458000         
 H                   -1.29367000          -1.00523000          -0.28985000         
 C                    0.57322000          -0.27545000           1.65633000         
 C                    0.32525000           1.77622000          -1.26428000         
 H                   -1.77410000           1.64799000          -1.25934000         
 N                   -1.00034000           0.39401000          -2.72893000         
 C                    1.47137000          -0.61412000           0.72346000         
 C                    0.47777000           2.83035000          -0.22010000         
 H                    1.24331000           1.40797000          -1.70211000         
 O                    2.72645000          -0.11014000           0.72926000         
 O                    1.27976000          -1.50823000          -0.28872000         
 H                   -1.19608000          -0.78394000           2.75563000         
 H                    0.91916000           0.38053000           2.43815000         
 H                    1.06909000           2.45685000           0.60033000         
 H                   -0.48214000           3.15276000           0.15302000         
 H                    1.01103000           3.69920000          -0.62952000         
 H                    3.16707000          -0.41541000          -0.08270000         
 H                    0.45465000          -1.98527000          -0.12430000         
 H                   -3.55797000          -1.33951000           0.23931000         
 H                   -3.19165000          -1.60535000           1.85145000         
 H                   -1.73053000          -0.29743000          -2.59431000         
 H                   -0.12295000          -0.02402000          -3.02250000         
25
Image 4 energy:-0.02636 
 C                   -1.59119000          -1.09415000           0.73121000         
 C                   -0.79418000          -0.73767000           1.74773000         
 C                   -0.84140000           1.30560000          -1.68444000         
 N                   -2.85756000          -1.66703000           0.89787000         
 H                   -1.29271000          -0.99104000          -0.30823000         
 C                    0.57352000          -0.27123000           1.65337000         
 C                    0.32769000           1.77445000          -1.26164000         
 H                   -1.77169000           1.67387000          -1.27363000         
 N                   -1.00612000           0.39602000          -2.72752000         
 C                    1.47312000          -0.61328000           0.72229000         
 C                    0.48217000           2.83612000          -0.22505000         
 H                    1.24404000           1.39220000          -1.69395000         
 O                    2.72915000          -0.11038000           0.73230000         
 O                    1.27987000          -1.50862000          -0.28927000         
 H                   -1.19640000          -0.76375000           2.74110000         
 H                    0.91904000           0.38777000           2.43360000         
 H                    1.07331000           2.45153000           0.63294000         
 H                   -0.49531000           3.15058000           0.14457000         
 H                    0.98750000           3.69910000          -0.64066000         
 H                    3.20124000          -0.48572000          -0.01902000         
 H                    0.46018000          -1.99325000          -0.12616000         
 H                   -3.53488000          -1.34674000           0.21862000         
 H                   -3.20197000          -1.59742000           1.84027000         
 H                   -1.77813000          -0.24778000          -2.61617000         
 H                   -0.14832000          -0.07483000          -2.98759000         
25
Image 5 energy:-0.02649 
 C                   -1.59181000          -1.10167000           0.73425000         
 C                   -0.79622000          -0.72471000           1.74097000         
 C                   -0.84115000           1.30554000          -1.68330000         
 N                   -2.85330000          -1.65990000           0.89203000         
 H                   -1.28776000          -1.01289000          -0.29629000         
 C                    0.57424000          -0.27067000           1.65058000         
 C                    0.32631000           1.77310000          -1.26260000         
 H                   -1.76883000           1.68673000          -1.27701000         
 N                   -1.01020000           0.39447000          -2.72359000         
 C                    1.47218000          -0.60738000           0.72174000         
 C                    0.47788000           2.82830000          -0.21753000         
 H                    1.24117000           1.39371000          -1.69343000         
 O                    2.73177000          -0.11280000           0.73124000         
 O                    1.28466000          -1.50737000          -0.28974000         
 H                   -1.20015000          -0.77125000           2.75697000         
 H                    0.91901000           0.38643000           2.43232000         
 H                    1.10355000           2.48190000           0.58837000         
 H                   -0.49541000           3.12679000           0.17690000         
 H                    0.97133000           3.71859000          -0.64466000         
 H                    3.23252000          -0.55748000           0.04115000         
 H                    0.46859000          -1.99591000          -0.12294000         
 H                   -3.53854000          -1.39619000           0.19726000         
 H                   -3.21786000          -1.58141000           1.83848000         
 H                   -1.81171000          -0.20740000          -2.64036000         
 H                   -0.17123000          -0.10792000          -2.96785000         
25
Image 6 energy:-0.02654 
 C                   -1.59033000          -1.10196000           0.73329000         
 C                   -0.79787000          -0.72600000           1.74312000         
 C                   -0.83947000           1.30151000          -1.67886000         
 N                   -2.85774000          -1.65692000           0.89505000         
 H                   -1.27557000          -1.03204000          -0.29677000         
 C                    0.57237000          -0.26969000           1.65300000         
 C                    0.32791000           1.77742000          -1.26469000         
 H                   -1.76755000           1.67113000          -1.26323000         
 N                   -1.00730000           0.39294000          -2.72154000         
 C                    1.47382000          -0.61204000           0.72078000         
 C                    0.47846000           2.82736000          -0.21591000         
 H                    1.24913000           1.40487000          -1.70448000         
 O                    2.72905000          -0.10852000           0.72720000         
 O                    1.28781000          -1.50601000          -0.29216000         
 H                   -1.20997000          -0.72535000           2.73552000         
 H                    0.91965000           0.38953000           2.43098000         
 H                    1.15320000           2.47694000           0.57356000         
 H                   -0.47724000           3.06203000           0.23279000         
 H                    0.89137000           3.73112000          -0.64715000         
 H                    3.23580000          -0.58106000           0.04213000         
 H                    0.46671000          -1.98954000          -0.13300000         
 H                   -3.51593000          -1.43727000           0.16490000         
 H                   -3.24528000          -1.52575000           1.81478000         
 H                   -1.83160000          -0.18833000          -2.65950000         
 H                   -0.17448000          -0.13137000          -2.94841000         
25
Image 7 energy:-0.02656 
 C                   -1.58867000          -1.09870000           0.73154000         
 C                   -0.79418000          -0.72640000           1.74379000         
 C                   -0.83626000           1.28913000          -1.67233000         
 N                   -2.86157000          -1.64826000           0.89238000         
 H                   -1.27090000          -1.03661000          -0.30742000         
 C                    0.57677000          -0.27594000           1.65354000         
 C                    0.33030000           1.77545000          -1.26639000         
 H                   -1.76528000           1.64215000          -1.24345000         
 N                   -1.00103000           0.38551000          -2.72010000         
 C                    1.46987000          -0.60473000           0.71885000         
 C                    0.48074000           2.81438000          -0.20622000         
 H                    1.24162000           1.42502000          -1.72450000         
 O                    2.72672000          -0.10169000           0.72534000         
 O                    1.27824000          -1.49988000          -0.29607000         
 H                   -1.20779000          -0.73447000           2.75073000         
 H                    0.92333000           0.38464000           2.43279000         
 H                    1.18273000           2.48106000           0.54116000         
 H                   -0.48228000           3.02896000           0.26539000         
 H                    0.87773000           3.74835000          -0.62731000         
 H                    3.20965000          -0.51198000           0.00183000         
 H                    0.45370000          -1.97584000          -0.13925000         
 H                   -3.51551000          -1.43338000           0.15341000         
 H                   -3.25453000          -1.50101000           1.80560000         
 H                   -1.82266000          -0.20313000          -2.65496000         
 H                   -0.15961000          -0.13323000          -2.94663000         
25
Image 8 energy:-0.02670 
 C                   -1.59012000          -1.10073000           0.73282000         
 C                   -0.79743000          -0.73205000           1.74517000         
 C                   -0.83776000           1.28448000          -1.66745000         
 N                   -2.85844000          -1.64312000           0.88532000         
 H                   -1.27417000          -1.05230000          -0.29156000         
 C                    0.57256000          -0.27180000           1.65421000         
 C                    0.32673000           1.77864000          -1.26725000         
 H                   -1.76587000           1.62230000          -1.22620000         
 N                   -1.00148000           0.38505000          -2.71788000         
 C                    1.47274000          -0.61062000           0.72117000         
 C                    0.48371000           2.82338000          -0.21264000         
 H                    1.24128000           1.42659000          -1.72598000         
 O                    2.72760000          -0.10599000           0.72448000         
 O                    1.27950000          -1.50270000          -0.29333000         
 H                   -1.21556000          -0.73368000           2.74189000         
 H                    0.91932000           0.38386000           2.43581000         
 H                    1.16717000           2.46596000           0.56581000         
 H                   -0.47022000           3.04275000           0.25142000         
 H                    0.89107000           3.73979000          -0.62504000         
 H                    3.17522000          -0.42388000          -0.06510000         
 H                    0.45232000          -1.97484000          -0.13578000         
 H                   -3.52230000          -1.38447000           0.16896000         
 H                   -3.24049000          -1.52721000           1.82114000         
 H                   -1.77323000          -0.25238000          -2.62378000         
 H                   -0.14875000          -0.08126000          -2.98546000         
25
Image 9 energy:-0.02626 
 C                   -1.59305000          -1.09099000           0.72717000         
 C                   -0.79622000          -0.73152000           1.74111000         
 C                   -0.84038000           1.28840000          -1.66802000         
 N                   -2.86312000          -1.65295000           0.89272000         
 H                   -1.28128000          -1.00379000          -0.31531000         
 C                    0.57320000          -0.27298000           1.65031000         
 C                    0.32492000           1.77346000          -1.26155000         
 H                   -1.77064000           1.62196000          -1.22723000         
 N                   -1.00233000           0.38532000          -2.71842000         
 C                    1.47248000          -0.60994000           0.72047000         
 C                    0.48299000           2.82443000          -0.21465000         
 H                    1.24362000           1.41554000          -1.71319000         
 O                    2.72871000          -0.10910000           0.73111000         
 O                    1.28336000          -1.50258000          -0.29404000         
 H                   -1.20536000          -0.75653000           2.74426000         
 H                    0.91850000           0.38035000           2.43412000         
 H                    1.12757000           2.47226000           0.57364000         
 H                   -0.47749000           3.10210000           0.20482000         
 H                    0.95667000           3.71805000          -0.63765000         
 H                    3.16965000          -0.40672000          -0.09077000         
 H                    0.46192000          -1.98353000          -0.13367000         
 H                   -3.53037000          -1.35763000           0.19805000         
 H                   -3.22106000          -1.54798000           1.82124000         
 H                   -1.74502000          -0.29047000          -2.59601000         
 H                   -0.13554000          -0.04611000          -3.01203000         
25
Image 10 energy:-0.02650 
 C                   -1.59184000          -1.09259000           0.72511000         
 C                   -0.79531000          -0.72927000           1.73763000         
 C                   -0.84433000           1.29290000          -1.67050000         
 N                   -2.85780000          -1.64733000           0.88501000         
 H                   -1.28953000          -1.01391000          -0.30130000         
 C                    0.57408000          -0.27084000           1.64785000         
 C                    0.32494000           1.76618000          -1.25404000         
 H                   -1.77466000           1.64755000          -1.24602000         
 N                   -1.01074000           0.38509000          -2.71473000         
 C                    1.47403000          -0.60804000           0.71992000         
 C                    0.48098000           2.82889000          -0.21858000         
 H                    1.23107000           1.40614000          -1.70376000         
 O                    2.73259000          -0.10945000           0.73402000         
 O                    1.28682000          -1.50421000          -0.29480000         
 H                   -1.19807000          -0.76413000           2.74098000         
 H                    0.91800000           0.38643000           2.43008000         
 H                    1.09479000           2.45639000           0.60951000         
 H                   -0.49125000           3.13879000           0.16946000         
 H                    0.96993000           3.70038000          -0.64384000         
 H                    3.20754000          -0.49435000          -0.00841000         
 H                    0.46306000          -1.98812000          -0.13556000         
 H                   -3.55475000          -1.36655000           0.20914000         
 H                   -3.20892000          -1.57931000           1.84492000         
 H                   -1.76893000          -0.27509000          -2.60179000         
 H                   -0.14400000          -0.05609000          -3.00296000         
25
Image 11 energy:-0.02654 
 C                   -1.59176000          -1.09378000           0.72694000         
 C                   -0.79657000          -0.72303000           1.73606000         
 C                   -0.84501000           1.29537000          -1.67144000         
 N                   -2.85727000          -1.65180000           0.88578000         
 H                   -1.28025000          -1.00579000          -0.30709000         
 C                    0.57347000          -0.26533000           1.64417000         
 C                    0.32287000           1.76980000          -1.25805000         
 H                   -1.77171000           1.67438000          -1.26304000         
 N                   -1.01362000           0.38272000          -2.70899000         
 C                    1.47678000          -0.60801000           0.71644000         
 C                    0.47724000           2.82386000          -0.21393000         
 H                    1.24762000           1.38666000          -1.69558000         
 O                    2.73446000          -0.10998000           0.73472000         
 O                    1.28933000          -1.50333000          -0.29739000         
 H                   -1.20079000          -0.75910000           2.74466000         
 H                    0.92112000           0.39085000           2.42575000         
 H                    1.10599000           2.46848000           0.60388000         
 H                   -0.49113000           3.10782000           0.18749000         
 H                    0.96197000           3.71416000          -0.63860000         
 H                    3.24999000          -0.58014000           0.06693000         
 H                    0.47305000          -1.98955000          -0.13814000         
 H                   -3.52538000          -1.37380000           0.17892000         
 H                   -3.22685000          -1.54755000           1.81233000         
 H                   -1.80760000          -0.23014000          -2.62735000         
 H                   -0.17305000          -0.10723000          -2.96427000         
25
Image 12 energy:-0.02632 
 C                   -1.59178000          -1.09269000           0.72249000         
 C                   -0.79756000          -0.71764000           1.73287000         
 C                   -0.84179000           1.29278000          -1.66597000         
 N                   -2.86183000          -1.64531000           0.88322000         
 H                   -1.27499000          -1.03011000          -0.31042000         
 C                    0.57374000          -0.26712000           1.64212000         
 C                    0.32902000           1.76094000          -1.25133000         
 H                   -1.77284000           1.66239000          -1.25057000         
 N                   -1.01238000           0.37382000          -2.70219000         
 C                    1.47271000          -0.59941000           0.70924000         
 C                    0.48156000           2.81591000          -0.20517000         
 H                    1.23056000           1.40572000          -1.70733000         
 O                    2.73156000          -0.10386000           0.73080000         
 O                    1.29429000          -1.49977000          -0.30143000         
 H                   -1.21005000          -0.72305000           2.73297000         
 H                    0.92085000           0.38837000           2.42463000         
 H                    1.14478000           2.47432000           0.58253000         
 H                   -0.48613000           3.06946000           0.22943000         
 H                    0.90825000           3.71375000          -0.63652000         
 H                    3.25098000          -0.58455000           0.06731000         
 H                    0.46735000          -1.97895000          -0.14358000         
 H                   -3.51458000          -1.40428000           0.15706000         
 H                   -3.25412000          -1.53659000           1.82229000         
 H                   -1.83880000          -0.20083000          -2.63771000         
 H                   -0.18048000          -0.15409000          -2.92520000         
25
Image 13 energy:-0.02630 
 C                   -1.59082000          -1.10156000           0.71992000         
 C                   -0.79898000          -0.71468000           1.72632000         
 C                   -0.83774000           1.27507000          -1.65436000         
 N                   -2.86395000          -1.63945000           0.88723000         
 H                   -1.27517000          -1.06456000          -0.31127000         
 C                    0.57414000          -0.26918000           1.64093000         
 C                    0.32712000           1.76641000          -1.25147000         
 H                   -1.76274000           1.64177000          -1.23479000         
 N                   -1.00511000           0.37414000          -2.70228000         
 C                    1.47515000          -0.60200000           0.71539000         
 C                    0.48057000           2.81514000          -0.20358000         
 H                    1.25217000           1.39791000          -1.69683000         
 O                    2.73166000          -0.09825000           0.72606000         
 O                    1.28491000          -1.49495000          -0.30424000         
 H                   -1.21651000          -0.70824000           2.73103000         
 H                    0.91914000           0.38757000           2.42316000         
 H                    1.16142000           2.46141000           0.57913000         
 H                   -0.47069000           3.04980000           0.25315000         
 H                    0.90498000           3.72762000          -0.63242000         
 H                    3.22612000          -0.53800000           0.01995000         
 H                    0.46477000          -1.97446000          -0.15638000         
 H                   -3.53824000          -1.41044000           0.14999000         
 H                   -3.24651000          -1.48004000           1.79973000         
 H                   -1.83073000          -0.20888000          -2.63291000         
 H                   -0.16343000          -0.15069000          -2.92707000         
25
Image 14 energy:-0.02684 
 C                   -1.59440000          -1.09813000           0.71910000         
 C                   -0.80045000          -0.71815000           1.72781000         
 C                   -0.83952000           1.27063000          -1.65032000         
 N                   -2.86932000          -1.63203000           0.88607000         
 H                   -1.27940000          -1.05790000          -0.31374000         
 C                    0.57165000          -0.26529000           1.63903000         
 C                    0.32660000           1.76370000          -1.25125000         
 H                   -1.76891000           1.60665000          -1.20780000         
 N                   -1.00278000           0.37184000          -2.70254000         
 C                    1.47542000          -0.60313000           0.71147000         
 C                    0.48361000           2.81180000          -0.19927000         
 H                    1.23809000           1.41762000          -1.71603000         
 O                    2.73197000          -0.10106000           0.72737000         
 O                    1.29124000          -1.49688000          -0.30385000         
 H                   -1.21951000          -0.71035000           2.72464000         
 H                    0.91632000           0.39195000           2.42052000         
 H                    1.16010000           2.46763000           0.57901000         
 H                   -0.47745000           3.04987000           0.24932000         
 H                    0.90418000           3.72285000          -0.62326000         
 H                    3.19556000          -0.44308000          -0.04822000         
 H                    0.46338000          -1.97109000          -0.15140000         
 H                   -3.53239000          -1.38144000           0.17379000         
 H                   -3.24266000          -1.50645000           1.81870000         
 H                   -1.77109000          -0.27404000          -2.60804000         
 H                   -0.14720000          -0.08463000          -2.98096000         
25
Image 15 energy:-0.02620 
 C                   -1.59452000          -1.09519000           0.71065000         
 C                   -0.80045000          -0.71280000           1.71633000         