23
Image 1 energy:-0.02594 
 C                   -2.51054000          -0.24154000          -0.23473000         
 C                   -1.71200000          -1.14377000          -0.82861000         
 C                   -0.40265000          -1.58775000          -0.40412000         
 C                    0.07475000          -1.62444000           0.84287000         
 C                    1.44141000          -2.12154000           1.18647000         
 H                   -0.55398000          -1.35463000           1.68099000         
 H                    0.23317000          -1.96134000          -1.20585000         
 N                   -2.25036000           0.45366000           0.92738000         
 H                   -3.47890000          -0.03534000          -0.66879000         
 H                   -2.07173000          -1.58762000          -1.74828000         
 O                   -0.01351000           1.81257000          -0.45448000         
 C                    1.12356000           1.43446000          -0.38834000         
 O                    1.66804000           0.62803000          -1.30546000         
 C                    2.10825000           1.81296000           0.68290000         
 H                    1.00255000           0.37574000          -1.96551000         
 H                    2.73833000           2.61427000           0.30523000         
 H                    2.74377000           0.96595000           0.91764000         
 H                    1.58187000           2.16092000           1.56474000         
 H                   -1.26632000           0.55654000           1.12145000         
 H                   -2.74600000           1.33249000           0.99621000         
 H                    1.37214000          -3.09571000           1.67090000         
 H                    1.93637000          -1.44875000           1.88360000         
 H                    2.05561000          -2.22384000           0.29620000         
23
Image 2 energy:-0.02584 
 C                   -2.50413000          -0.22798000          -0.23181000         
 C                   -1.70875000          -1.13614000          -0.82393000         
 C                   -0.40096000          -1.59171000          -0.40208000         
 C                    0.08710000          -1.61941000           0.83804000         
 C                    1.44698000          -2.13468000           1.18479000         
 H                   -0.52977000          -1.32779000           1.67411000         
 H                    0.22157000          -1.98345000          -1.20115000         
 N                   -2.25441000           0.45964000           0.93380000         
 H                   -3.47299000          -0.01983000          -0.67129000         
 H                   -2.06590000          -1.57089000          -1.74453000         
 O                   -0.02324000           1.80493000          -0.46719000         
 C                    1.11971000           1.43170000          -0.39419000         
 O                    1.67761000           0.63057000          -1.30288000         
 C                    2.08740000           1.80793000           0.68986000         
 H                    1.02370000           0.37463000          -1.97632000         
 H                    2.72660000           2.60708000           0.31359000         
 H                    2.71855000           0.95466000           0.93533000         
 H                    1.55140000           2.16373000           1.56642000         
 H                   -1.26602000           0.55985000           1.12916000         
 H                   -2.73384000           1.34272000           0.99979000         
 H                    1.36850000          -3.10638000           1.67836000         
 H                    1.95205000          -1.45662000           1.87707000         
 H                    2.05729000          -2.25717000           0.28913000         
23
Image 3 energy:-0.02571 
 C                   -2.49389000          -0.21764000          -0.23628000         
 C                   -1.70558000          -1.12911000          -0.82165000         
 C                   -0.40000000          -1.59112000          -0.40004000         
 C                    0.09593000          -1.61237000           0.84072000         
 C                    1.45274000          -2.14419000           1.17715000         
 H                   -0.51187000          -1.32087000           1.68651000         
 H                    0.22033000          -1.99401000          -1.19955000         
 N                   -2.24171000           0.46700000           0.93582000         
 H                   -3.45611000          -0.00350000          -0.68155000         
 H                   -2.07220000          -1.57031000          -1.74104000         
 O                   -0.03049000           1.79869000          -0.47767000         
 C                    1.10754000           1.42334000          -0.39442000         
 O                    1.67537000           0.62805000          -1.29742000         
 C                    2.06797000           1.80425000           0.69806000         
 H                    1.03888000           0.38408000          -1.98348000         
 H                    2.72041000           2.59081000           0.31735000         
 H                    2.68801000           0.95663000           0.96469000         
 H                    1.52973000           2.18214000           1.56106000         
 H                   -1.25499000           0.56641000           1.12922000         
 H                   -2.73740000           1.34605000           1.01031000         
 H                    1.36008000          -3.10125000           1.69249000         
 H                    1.98190000          -1.46599000           1.84735000         
 H                    2.04996000          -2.29390000           0.28386000         
23
Image 4 energy:-0.02550 
 C                   -2.49047000          -0.20778000          -0.23492000         
 C                   -1.69307000          -1.11848000          -0.82463000         
 C                   -0.39956000          -1.59636000          -0.39430000         
 C                    0.10820000          -1.60089000           0.83996000         
 C                    1.45828000          -2.14885000           1.17168000         
 H                   -0.48698000          -1.27962000           1.68457000         
 H                    0.20915000          -2.01922000          -1.19284000         
 N                   -2.25430000           0.46813000           0.94133000         
 H                   -3.45049000           0.01221000          -0.68803000         
 H                   -2.04920000          -1.54569000          -1.75350000         
 O                   -0.03504000           1.79139000          -0.48262000         
 C                    1.10608000           1.42038000          -0.39323000         
 O                    1.67545000           0.62133000          -1.30267000         
 C                    2.05823000           1.80219000           0.70514000         
 H                    1.02607000           0.37427000          -1.98687000         
 H                    2.71574000           2.58167000           0.33029000         
 H                    2.66145000           0.93332000           0.99502000         
 H                    1.50331000           2.19097000           1.55432000         
 H                   -1.27242000           0.56730000           1.15497000         
 H                   -2.73023000           1.35452000           1.00566000         
 H                    1.35135000          -3.10121000           1.70431000         
 H                    2.00715000          -1.46797000           1.83006000         
 H                    2.04409000          -2.32055000           0.26140000         
23
Image 5 energy:-0.02530 
 C                   -2.48699000          -0.20156000          -0.23709000         
 C                   -1.69337000          -1.11304000          -0.82080000         
 C                   -0.39936000          -1.59759000          -0.39339000         
 C                    0.11739000          -1.59591000           0.83881000         
 C                    1.46416000          -2.15450000           1.16811000         
 H                   -0.46058000          -1.25213000           1.68356000         
 H                    0.19562000          -2.04231000          -1.18464000         
 N                   -2.25734000           0.47048000           0.94460000         
 H                   -3.43948000           0.02342000          -0.69657000         
 H                   -2.04493000          -1.53077000          -1.75206000         
 O                   -0.03583000           1.78722000          -0.48820000         
 C                    1.10339000           1.41566000          -0.39883000         
 O                    1.67856000           0.62664000          -1.30005000         
 C                    2.04152000           1.79014000           0.71008000         
 H                    1.03834000           0.39359000          -1.99219000         
 H                    2.75043000           2.54810000           0.33026000         
 H                    2.62317000           0.93939000           1.01713000         
 H                    1.48103000           2.20651000           1.54249000         
 H                   -1.27317000           0.57078000           1.16197000         
 H                   -2.74815000           1.35001000           1.02115000         
 H                    1.35389000          -3.07874000           1.75023000         
 H                    2.03577000          -1.45037000           1.78576000         
 H                    2.03372000          -2.36469000           0.26735000         
23
Image 6 energy:-0.02520 
 C                   -2.48343000          -0.19832000          -0.23890000         
 C                   -1.68718000          -1.10761000          -0.82340000         
 C                   -0.39917000          -1.59875000          -0.39132000         
 C                    0.12351000          -1.58775000           0.83594000         
 C                    1.46514000          -2.15784000           1.16570000         
 H                   -0.44118000          -1.22494000           1.68309000         
 H                    0.19280000          -2.05684000          -1.18362000         
 N                   -2.26261000           0.46681000           0.94577000         
 H                   -3.43525000           0.02689000          -0.70163000         
 H                   -2.04547000          -1.52844000          -1.75571000         
 O                   -0.04025000           1.78727000          -0.48727000         
 C                    1.10011000           1.41867000          -0.39772000         
 O                    1.67562000           0.62083000          -1.29903000         
 C                    2.04747000           1.79596000           0.70967000         
 H                    1.04115000           0.36783000          -1.97747000         
 H                    2.75839000           2.51492000           0.34035000         
 H                    2.57479000           0.89335000           1.05251000         
 H                    1.48450000           2.23385000           1.53288000         
 H                   -1.28547000           0.56414000           1.16947000         
 H                   -2.76432000           1.33887000           1.03080000         
 H                    1.34921000          -3.04425000           1.78990000         
 H                    2.05852000          -1.43963000           1.73296000         
 H                    2.01351000          -2.44254000           0.25603000         
23
Image 7 energy:-0.02518 
 C                   -2.48303000          -0.19458000          -0.23735000         
 C                   -1.67998000          -1.10301000          -0.82675000         
 C                   -0.39958000          -1.60085000          -0.39041000         
 C                    0.12796000          -1.58631000           0.83694000         
 C                    1.46726000          -2.16323000           1.15990000         
 H                   -0.42419000          -1.19609000           1.67993000         
 H                    0.18197000          -2.07921000          -1.17367000         
 N                   -2.26936000           0.46731000           0.94979000         
 H                   -3.43465000           0.02965000          -0.70642000         
 H                   -2.03191000          -1.51559000          -1.76515000         
 O                   -0.04256000           1.78356000          -0.49051000         
 C                    1.09903000           1.42081000          -0.39596000         
 O                    1.67974000           0.62361000          -1.29961000         
 C                    2.03858000           1.79222000           0.71324000         
 H                    1.02263000           0.33374000          -1.95941000         
 H                    2.81293000           2.46708000           0.32518000         
 H                    2.53951000           0.90296000           1.06563000         
 H                    1.48507000           2.26192000           1.52665000         
 H                   -1.29038000           0.57800000           1.18198000         
 H                   -2.77616000           1.33591000           1.02993000         
 H                    1.35865000          -3.01393000           1.84162000         
 H                    2.09450000          -1.41855000           1.67325000         
 H                    1.98318000          -2.48303000           0.25921000         
23
Image 8 energy:-0.02518 
 C                   -2.48142000          -0.19924000          -0.23787000         
 C                   -1.68658000          -1.10191000          -0.82433000         
 C                   -0.40005000          -1.60255000          -0.39120000         
 C                    0.12817000          -1.58744000           0.83356000         
 C                    1.46569000          -2.16758000           1.16027000         
 H                   -0.41740000          -1.18883000           1.67582000         
 H                    0.17628000          -2.09020000          -1.17229000         
 N                   -2.27290000           0.46409000           0.95232000         
 H                   -3.42634000           0.03267000          -0.70534000         
 H                   -2.02585000          -1.50659000          -1.76412000         
 O                   -0.04523000           1.78215000          -0.49396000         
 C                    1.09894000           1.42722000          -0.39956000         
 O                    1.68642000           0.63152000          -1.29058000         
 C                    2.04358000           1.79596000           0.70797000         
 H                    1.04519000           0.35201000          -1.95763000         
 H                    2.82719000           2.42729000           0.31511000         
 H                    2.49923000           0.88259000           1.08596000         
 H                    1.51151000           2.29741000           1.51094000         
 H                   -1.30096000           0.58445000           1.19300000         
 H                   -2.78723000           1.32945000           1.03350000         
 H                    1.35813000          -2.97463000           1.88790000         
 H                    2.11712000          -1.42921000           1.61314000         
 H                    1.95249000          -2.56479000           0.26677000         
23
Image 9 energy:-0.02462 
 C                   -2.48342000          -0.19406000          -0.23554000         
 C                   -1.67784000          -1.09781000          -0.82949000         
 C                   -0.39839000          -1.60242000          -0.39428000         
 C                    0.12966000          -1.58746000           0.83260000         
 C                    1.45935000          -2.18424000           1.16239000         
 H                   -0.41028000          -1.18120000           1.67411000         
 H                    0.17456000          -2.09400000          -1.17701000         
 N                   -2.27290000           0.45843000           0.95637000         
 H                   -3.43528000           0.03166000          -0.70516000         
 H                   -2.03830000          -1.51838000          -1.76005000         
 O                   -0.05004000           1.78257000          -0.49707000         
 C                    1.09516000           1.43455000          -0.39757000         
 O                    1.68900000           0.62829000          -1.28599000         
 C                    2.04372000           1.80891000           0.70555000         
 H                    1.05428000           0.32711000          -1.94768000         
 H                    2.85904000           2.40381000           0.30152000         
 H                    2.47111000           0.87739000           1.08071000         
 H                    1.54671000           2.34850000           1.50789000         
 H                   -1.29778000           0.57380000           1.18366000         
 H                   -2.78533000           1.31877000           1.04570000         
 H                    1.35675000          -2.95222000           1.91017000         
 H                    2.14222000          -1.40392000           1.56151000         
 H                    1.92798000          -2.61150000           0.28967000         
23
Image 10 energy:-0.02429 
 C                   -2.47940000          -0.19503000          -0.23739000         
 C                   -1.68311000          -1.09879000          -0.82655000         
 C                   -0.39998000          -1.60520000          -0.39485000         
 C                    0.12836000          -1.58797000           0.83029000         
 C                    1.45999000          -2.18249000           1.15378000         
 H                   -0.41293000          -1.16894000           1.66509000         
 H                    0.16776000          -2.10315000          -1.17445000         
 N                   -2.26613000           0.45854000           0.95979000         
 H                   -3.42576000           0.03638000          -0.71048000         
 H                   -2.03574000          -1.50991000          -1.76375000         
 O                   -0.04967000           1.77849000          -0.49926000         
 C                    1.09465000           1.43247000          -0.39515000         
 O                    1.69215000           0.63189000          -1.28388000         
 C                    2.03871000           1.81621000           0.70999000         
 H                    1.05504000           0.31679000          -1.95116000         
 H                    2.87422000           2.37626000           0.29804000         
 H                    2.44051000           0.90322000           1.12314000         
 H                    1.55026000           2.39755000           1.46868000         
 H                   -1.28665000           0.58099000           1.17905000         
 H                   -2.79329000           1.31697000           1.04861000         
 H                    1.35806000          -2.92640000           1.97706000         
 H                    2.13348000          -1.43439000           1.51931000         
 H                    1.89810000          -2.68028000           0.28202000         
23
Image 11 energy:-0.02498 
 C                   -2.47883000          -0.19489000          -0.23108000         
 C                   -1.68410000          -1.09552000          -0.82514000         
 C                   -0.39865000          -1.59761000          -0.39500000         
 C                    0.13097000          -1.58620000           0.82852000         
 C                    1.45804000          -2.18995000           1.15701000         
 H                   -0.41448000          -1.17245000           1.66476000         
 H                    0.17223000          -2.08859000          -1.17751000         
 N                   -2.26703000           0.45667000           0.96414000         
 H                   -3.42684000           0.04121000          -0.69794000         
 H                   -2.03127000          -1.49633000          -1.76700000         
 O                   -0.04885000           1.77548000          -0.50845000         
 C                    1.09581000           1.42030000          -0.39559000         
 O                    1.69958000           0.63537000          -1.28797000         
 C                    2.02817000           1.81357000           0.71542000         
 H                    1.06919000           0.35066000          -1.97191000         
 H                    2.87669000           2.34583000           0.29323000         
 H                    2.40060000           0.91646000           1.19961000         
 H                    1.52068000           2.45703000           1.43022000         
 H                   -1.29046000           0.58451000           1.18629000         
 H                   -2.78657000           1.31752000           1.05536000         
 H                    1.36301000          -2.90861000           1.95049000         
 H                    2.16822000          -1.42553000           1.48630000         
 H                    1.87675000          -2.68484000           0.29223000         
23
Image 12 energy:-0.02473 
 C                   -2.48394000          -0.19067000          -0.22839000         
 C                   -1.67977000          -1.08868000          -0.82333000         
 C                   -0.39433000          -1.58843000          -0.39468000         
 C                    0.13756000          -1.58035000           0.83097000         
 C                    1.46927000          -2.18112000           1.14586000         
 H                   -0.40511000          -1.18253000           1.67593000         
 H                    0.17665000          -2.07765000          -1.17982000         
 N                   -2.27106000           0.46209000           0.96639000         
 H                   -3.42909000           0.04135000          -0.70018000         
 H                   -2.02855000          -1.49140000          -1.76467000         
 O                   -0.04587000           1.77296000          -0.51704000         
 C                    1.09213000           1.40866000          -0.39655000         
 O                    1.70090000           0.62591000          -1.29116000         
 C                    2.01053000           1.79927000           0.72699000         
 H                    1.08136000           0.37020000          -1.97569000         
 H                    2.86648000           2.33037000           0.30054000         
 H                    2.38306000           0.91009000           1.23928000         
 H                    1.48517000           2.44250000           1.43151000         
 H                   -1.29741000           0.58748000           1.19597000         
 H                   -2.78172000           1.31885000           1.06500000         
 H                    1.36601000          -2.89678000           1.98052000         
 H                    2.18204000          -1.41600000           1.46872000         
 H                    1.88595000          -2.69181000           0.28293000         
23
Image 13 energy:-0.02446 
 C                   -2.48696000          -0.18766000          -0.22747000         
 C                   -1.67684000          -1.08273000          -0.82192000         
 C                   -0.39088000          -1.58184000          -0.39450000         
 C                    0.13983000          -1.58063000           0.83180000         
 C                    1.47333000          -2.17119000           1.15466000         
 H                   -0.40623000          -1.19600000           1.68083000         
 H                    0.18139000          -2.06673000          -1.18104000         
 N                   -2.27134000           0.46447000           0.96732000         
 H                   -3.44160000           0.03310000          -0.69737000         
 H                   -2.03087000          -1.49486000          -1.75925000         
 O                   -0.04568000           1.77040000          -0.52219000         
 C                    1.09359000           1.40806000          -0.40169000         
 O                    1.70205000           0.63027000          -1.29967000         
 C                    2.00285000           1.77837000           0.73537000         
 H                    1.06004000           0.33646000          -1.97342000         
 H                    2.84630000           2.32751000           0.31561000         
 H                    2.39158000           0.90203000           1.22508000         
 H                    1.47140000           2.39782000           1.45095000         
 H                   -1.29138000           0.58777000           1.18704000         
 H                   -2.81307000           1.30923000           1.07914000         
 H                    1.37560000          -2.90479000           1.94143000         
 H                    2.17645000          -1.40911000           1.50115000         
 H                    1.90676000          -2.68330000           0.27039000         
23
Image 14 energy:-0.02462 
 C                   -2.48096000          -0.18604000          -0.22083000         
 C                   -1.67547000          -1.08128000          -0.81980000         
 C                   -0.38997000          -1.57495000          -0.39175000         
 C                    0.13718000          -1.57836000           0.83391000         
 C                    1.47614000          -2.16427000           1.14717000         
 H                   -0.41172000          -1.19810000           1.68326000         
 H                    0.18882000          -2.04936000          -1.18002000         
 N                   -2.27265000           0.46574000           0.96914000         
 H                   -3.43489000           0.03495000          -0.68669000         
 H                   -2.02299000          -1.48946000          -1.75945000         
 O                   -0.04992000           1.76586000          -0.53204000         
 C                    1.09089000           1.40331000          -0.40314000         
 O                    1.70772000           0.62970000          -1.30136000         
 C                    1.99615000           1.76657000           0.73897000         
 H                    1.08103000           0.35948000          -1.99652000         
 H                    2.83758000           2.33267000           0.34586000         
 H                    2.37585000           0.84652000           1.20115000         
 H                    1.45616000           2.36680000           1.47506000         
 H                   -1.29390000           0.58348000           1.19564000         
 H                   -2.80266000           1.32154000           1.06834000         
 H                    1.38194000          -2.92505000           1.93707000         
 H                    2.15242000          -1.41108000           1.53326000         
 H                    1.92577000          -2.60084000           0.28295000         
23
Image 15 energy:-0.02495 
 C                   -2.48201000          -0.18744000          -0.21610000         
 C                   -1.67772000          -1.07736000          -0.81903000         
 C                   -0.38643000          -1.56665000          -0.39573000         
 C                    0.13839000          -1.57050000           0.83122000         
 C                    1.47815000          -2.15203000           1.14966000         
 H                   -0.41258000          -1.19288000           1.68158000         
 H                    0.19540000          -2.03468000          -1.18745000         
 N                   -2.26608000           0.46901000           0.97585000         
 H                   -3.43181000           0.03741000          -0.67794000         
 H                   -2.02514000          -1.48275000          -1.75953000         
 O                   -0.05116000           1.75741000          -0.54495000         
 C                    1.08552000           1.39500000          -0.40653000         
 O                    1.71352000           0.62824000          -1.29871000         
 C                    1.98089000           1.75070000           0.74769000         
 H                    1.10506000           0.37551000          -2.00858000         
 H                    2.82558000           2.34180000           0.38432000         
 H                    2.37917000           0.83472000           1.17394000         
 H                    1.43337000           2.31715000           1.49505000         
 H                   -1.29303000           0.57894000           1.21654000         
 H                   -2.77618000           1.33543000           1.06480000         
 H                    1.37932000          -2.91957000           1.91446000         
 H                    2.16472000          -1.38484000           1.53501000         
 H                    1.93038000          -2.60315000           0.25808000         
23
Image 16 energy:-0.02496 
 C                   -2.48464000          -0.18671000          -0.20602000         
 C                   -1.67849000          -1.07120000          -0.81933000         
 C                   -0.38267000          -1.55202000          -0.40243000         
 C                    0.13747000          -1.56767000           0.82822000         
 C                    1.47869000          -2.14091000           1.14773000         
 H                   -0.42161000          -1.19986000           1.67319000         