21
Image 1 energy:-0.08186 
 O                    0.26442000           0.67032000          -1.13284000         
 C                    1.07711000          -0.41102000          -0.91535000         
 C                    1.02552000          -1.17266000           0.18533000         
 N                    0.21263000          -0.83937000           1.29234000         
 H                    1.63404000          -2.05547000           0.29601000         
 N                    1.93813000          -0.62904000          -1.99606000         
 C                   -0.77953000           0.88531000          -0.20122000         
 C                   -0.28093000           0.51979000           1.22056000         
 H                   -0.97752000           1.96493000          -0.25103000         
 C                   -2.05068000           0.13863000          -0.60762000         
 H                    0.58495000           1.17081000           1.41262000         
 C                   -1.33010000           0.76505000           2.29743000         
 H                   -0.51879000          -1.50926000           1.45604000         
 H                    2.83456000          -1.00170000          -1.72744000         
 H                    2.02818000           0.20671000          -2.56090000         
 H                   -2.89489000           0.48578000          -0.02072000         
 H                   -1.92746000          -0.93685000          -0.47047000         
 H                   -2.25087000           0.31866000          -1.65915000         
 H                   -0.88200000           0.61275000           3.27773000         
 H                   -2.17209000           0.08700000           2.19450000         
 H                   -1.69242000           1.78717000           2.24455000         
21
Image 2 energy:-0.08162 
 O                    0.25991000           0.66548000          -1.14504000         
 C                    1.07961000          -0.42234000          -0.91469000         
 C                    1.03691000          -1.17330000           0.18683000         
 N                    0.21645000          -0.83657000           1.29283000         
 H                    1.65474000          -2.04663000           0.30183000         
 N                    1.94674000          -0.62532000          -1.99260000         
 C                   -0.78155000           0.88115000          -0.20003000         
 C                   -0.28148000           0.51732000           1.22146000         
 H                   -0.96368000           1.96395000          -0.24839000         
 C                   -2.06515000           0.15770000          -0.60179000         
 H                    0.58332000           1.16971000           1.41281000         
 C                   -1.33220000           0.75878000           2.29560000         
 H                   -0.52693000          -1.51607000           1.47203000         
 H                    2.84313000          -1.00227000          -1.72482000         
 H                    2.02979000           0.20885000          -2.55528000         
 H                   -2.89862000           0.52268000          -0.01401000         
 H                   -1.96509000          -0.91464000          -0.46399000         
 H                   -2.26394000           0.34428000          -1.65292000         
 H                   -0.88039000           0.64975000           3.27509000         
 H                   -2.14879000           0.04136000           2.22139000         
 H                   -1.73663000           1.76483000           2.20864000         
21
Image 3 energy:-0.08112 
 O                    0.24687000           0.64193000          -1.14673000         
 C                    1.08251000          -0.41891000          -0.91372000         
 C                    1.04607000          -1.16744000           0.19310000         
 N                    0.21524000          -0.84108000           1.28879000         
 H                    1.67319000          -2.03491000           0.31632000         
 N                    1.95361000          -0.62086000          -1.98865000         
 C                   -0.77877000           0.88670000          -0.20340000         
 C                   -0.27929000           0.51694000           1.21761000         
 H                   -0.94944000           1.96840000          -0.25303000         
 C                   -2.07508000           0.17647000          -0.59598000         
 H                    0.59018000           1.16513000           1.40753000         
 C                   -1.33004000           0.75319000           2.29319000         
 H                   -0.52318000          -1.51751000           1.44438000         
 H                    2.85202000          -1.00174000          -1.71970000         
 H                    2.03918000           0.21462000          -2.54848000         
 H                   -2.91853000           0.54687000          -0.00644000         
 H                   -1.97832000          -0.90809000          -0.45420000         
 H                   -2.27469000           0.36464000          -1.65187000         
 H                   -0.87508000           0.66257000           3.27307000         
 H                   -2.12696000           0.02335000           2.21528000         
 H                   -1.76356000           1.74772000           2.19659000         
21
Image 4 energy:-0.08078 
 O                    0.24007000           0.63592000          -1.16264000         
 C                    1.08623000          -0.42609000          -0.91262000         
 C                    1.06084000          -1.16714000           0.19717000         
 N                    0.21742000          -0.84436000           1.29097000         
 H                    1.70306000          -2.01825000           0.32699000         
 N                    1.96191000          -0.61787000          -1.98550000         
 C                   -0.78308000           0.88087000          -0.20014000         
 C                   -0.27910000           0.51347000           1.21808000         
 H                   -0.94068000           1.97103000          -0.25241000         
 C                   -2.09104000           0.19406000          -0.58942000         
 H                    0.58918000           1.16169000           1.40978000         
 C                   -1.33248000           0.75091000           2.28958000         
 H                   -0.52171000          -1.52119000           1.43646000         
 H                    2.85847000          -0.98458000          -1.70832000         
 H                    2.04657000           0.22307000          -2.54328000         
 H                   -2.90436000           0.60737000          -0.01621000         
 H                   -2.03558000          -0.88021000          -0.43299000         
 H                   -2.27616000           0.36800000          -1.64858000         
 H                   -0.87205000           0.66357000           3.27128000         
 H                   -2.12682000           0.01326000           2.21484000         
 H                   -1.76477000           1.73707000           2.19945000         
21
Image 5 energy:-0.08021 
 O                    0.22679000           0.61203000          -1.16300000         
 C                    1.08920000          -0.42385000          -0.91386000         
 C                    1.07066000          -1.15750000           0.20161000         
 N                    0.22004000          -0.84536000           1.28823000         
 H                    1.72464000          -2.00925000           0.33924000         
 N                    1.96808000          -0.61332000          -1.98252000         
 C                   -0.78017000           0.88365000          -0.20451000         
 C                   -0.27965000           0.50824000           1.21472000         
 H                   -0.92177000           1.97247000          -0.25462000         
 C                   -2.09805000           0.21444000          -0.58874000         
 H                    0.58582000           1.15882000           1.41144000         
 C                   -1.33276000           0.74487000           2.29027000         
 H                   -0.52726000          -1.52966000           1.43560000         
 H                    2.86288000          -0.97882000          -1.70233000         
 H                    2.05044000           0.21985000          -2.54228000         
 H                   -2.93171000           0.63077000          -0.00599000         
 H                   -2.04802000          -0.86089000          -0.41582000         
 H                   -2.28112000           0.37530000          -1.64209000         
 H                   -0.87476000           0.64224000           3.27144000         
 H                   -2.14029000           0.01372000           2.21134000         
 H                   -1.74847000           1.75316000           2.19079000         
21
Image 6 energy:-0.07989 
 O                    0.21955000           0.60084000          -1.17310000         
 C                    1.09369000          -0.42821000          -0.91130000         
 C                    1.08372000          -1.15651000           0.20715000         
 N                    0.21978000          -0.84679000           1.28786000         
 H                    1.75146000          -1.98071000           0.35275000         
 N                    1.97441000          -0.60989000          -1.98083000         
 C                   -0.78296000           0.88396000          -0.20411000         
 C                   -0.28002000           0.50968000           1.21362000         
 H                   -0.90877000           1.97133000          -0.25981000         
 C                   -2.11186000           0.22622000          -0.57878000         
 H                    0.58624000           1.15852000           1.41114000         
 C                   -1.33320000           0.74049000           2.28790000         
 H                   -0.52212000          -1.52455000           1.40545000         
 H                    2.87530000          -0.99137000          -1.70450000         
 H                    2.05814000           0.23388000          -2.53971000         
 H                   -2.91892000           0.67550000          -0.03210000         
 H                   -2.08179000          -0.85138000          -0.39307000         
 H                   -2.29337000           0.39084000          -1.65092000         
 H                   -0.88556000           0.59918000           3.27095000         
 H                   -2.15375000           0.03474000           2.17764000         
 H                   -1.72781000           1.75241000           2.22255000         
21
Image 7 energy:-0.07959 
 O                    0.20974000           0.58778000          -1.18216000         
 C                    1.09687000          -0.42829000          -0.91019000         
 C                    1.09582000          -1.15136000           0.21365000         
 N                    0.22215000          -0.84833000           1.28830000         
 H                    1.77769000          -1.97538000           0.36783000         
 N                    1.98062000          -0.60862000          -1.97798000         
 C                   -0.78370000           0.88037000          -0.20432000         
 C                   -0.28074000           0.50743000           1.21384000         
 H                   -0.90220000           1.97639000          -0.26085000         
 C                   -2.12125000           0.24486000          -0.57923000         
 H                    0.58665000           1.15700000           1.41023000         
 C                   -1.33309000           0.73564000           2.28507000         
 H                   -0.52150000          -1.53243000           1.40102000         
 H                    2.88046000          -0.95545000          -1.70292000         
 H                    2.04705000           0.21997000          -2.54385000         
 H                   -2.94006000           0.70668000          -0.01684000         
 H                   -2.11460000          -0.82384000          -0.37877000         
 H                   -2.28704000           0.38103000          -1.63649000         
 H                   -0.89656000           0.54989000           3.26380000         
 H                   -2.17506000           0.06485000           2.14902000         
 H                   -1.69330000           1.75587000           2.25444000         
21
Image 8 energy:-0.07920 
 O                    0.19802000           0.56577000          -1.18613000         
 C                    1.10083000          -0.43088000          -0.91064000         
 C                    1.10715000          -1.14113000           0.21706000         
 N                    0.22535000          -0.85117000           1.28780000         
 H                    1.79985000          -1.94927000           0.38272000         
 N                    1.98637000          -0.60247000          -1.97535000         
 C                   -0.78310000           0.88348000          -0.20641000         
 C                   -0.27945000           0.50177000           1.20872000         
 H                   -0.88610000           1.97788000          -0.26470000         
 C                   -2.13147000           0.26145000          -0.57225000         
 H                    0.58468000           1.15096000           1.41342000         
 C                   -1.33643000           0.73189000           2.28405000         
 H                   -0.52343000          -1.53446000           1.39044000         
 H                    2.88403000          -0.97076000          -1.69411000         
 H                    2.06187000           0.23735000          -2.53740000         
 H                   -2.93122000           0.74513000          -0.03078000         
 H                   -2.13705000          -0.80806000          -0.36105000         
 H                   -2.30315000           0.39959000          -1.64115000         
 H                   -0.90778000           0.51160000           3.25720000         
 H                   -2.19534000           0.08269000           2.13515000         
 H                   -1.66610000           1.77167000           2.27008000         
21
Image 9 energy:-0.07865 
 O                    0.18612000           0.54774000          -1.19686000         
 C                    1.10440000          -0.43376000          -0.90866000         
 C                    1.12312000          -1.14409000           0.22494000         
 N                    0.22816000          -0.84953000           1.28773000         
 H                    1.83397000          -1.93114000           0.39443000         
 N                    1.99189000          -0.59714000          -1.97358000         
 C                   -0.78200000           0.88031000          -0.20669000         
 C                   -0.28159000           0.50465000           1.21158000         
 H                   -0.86156000           1.97180000          -0.26755000         
 C                   -2.14176000           0.28430000          -0.56863000         
 H                    0.58219000           1.15451000           1.41607000         
 C                   -1.33928000           0.72525000           2.28085000         
 H                   -0.51764000          -1.53353000           1.37022000         
 H                    2.89307000          -0.95447000          -1.70048000         
 H                    2.05477000           0.23469000          -2.54181000         
 H                   -2.94147000           0.78176000          -0.02324000         
 H                   -2.16667000          -0.78505000          -0.35227000         
 H                   -2.30519000           0.41521000          -1.63496000         
 H                   -0.91729000           0.48551000           3.25278000         
 H                   -2.19958000           0.08508000           2.11196000         
 H                   -1.66518000           1.75926000           2.28826000         
21
Image 10 energy:-0.07794 
 O                    0.17582000           0.52801000          -1.20112000         
 C                    1.10904000          -0.43497000          -0.90820000         
 C                    1.13298000          -1.12678000           0.22919000         
 N                    0.23135000          -0.85525000           1.28880000         
 H                    1.85580000          -1.91917000           0.41290000         
 N                    1.99793000          -0.59514000          -1.97195000         
 C                   -0.78184000           0.88059000          -0.20663000         
 C                   -0.27860000           0.49634000           1.20828000         
 H                   -0.86187000           1.98789000          -0.26789000         
 C                   -2.15200000           0.30533000          -0.56263000         
 H                    0.58209000           1.15318000           1.41597000         
 C                   -1.34237000           0.71933000           2.27534000         
 H                   -0.51647000          -1.54141000           1.36569000         
 H                    2.90078000          -0.95873000          -1.70324000         
 H                    2.05497000           0.23600000          -2.54057000         
 H                   -2.93392000           0.82074000          -0.02115000         
 H                   -2.19811000          -0.76218000          -0.34684000         
 H                   -2.31504000           0.43626000          -1.63176000         
 H                   -0.92244000           0.48544000           3.25462000         
 H                   -2.20377000           0.07782000           2.10704000         
 H                   -1.66881000           1.75650000           2.27516000         
21
Image 11 energy:-0.07746 
 O                    0.16390000           0.50963000          -1.20860000         
 C                    1.11091000          -0.43775000          -0.90762000         
 C                    1.14711000          -1.13307000           0.23314000         
 N                    0.23523000          -0.85525000           1.28809000         
 H                    1.87692000          -1.88067000           0.42246000         
 N                    2.00170000          -0.58879000          -1.96927000         
 C                   -0.77938000           0.88160000          -0.20758000         
 C                   -0.28046000           0.49744000           1.20870000         
 H                   -0.82623000           1.97346000          -0.27327000         
 C                   -2.15944000           0.32580000          -0.55990000         
 H                    0.58162000           1.14492000           1.42342000         
 C                   -1.34650000           0.71445000           2.27428000         
 H                   -0.51347000          -1.54215000           1.35213000         
 H                    2.90011000          -0.94145000          -1.69229000         
 H                    2.06650000           0.24928000          -2.53565000         
 H                   -2.93960000           0.85216000          -0.01004000         
 H                   -2.21870000          -0.73905000          -0.33627000         
 H                   -2.32428000           0.45615000          -1.62577000         
 H                   -0.91783000           0.50205000           3.24737000         
 H                   -2.19451000           0.05196000           2.11925000         
 H                   -1.69442000           1.74671000           2.25245000         
21
Image 12 energy:-0.07681 
 O                    0.15575000           0.49035000          -1.21390000         
 C                    1.11501000          -0.43923000          -0.90641000         
 C                    1.15746000          -1.12287000           0.23902000         
 N                    0.23805000          -0.85443000           1.28688000         
 H                    1.90699000          -1.90189000           0.42899000         
 N                    2.00549000          -0.58347000          -1.96737000         
 C                   -0.77695000           0.87720000          -0.21072000         
 C                   -0.28216000           0.49367000           1.20891000         
 H                   -0.81586000           1.97368000          -0.27478000         
 C                   -2.16929000           0.34852000          -0.55521000         
 H                    0.57525000           1.14754000           1.42365000         
 C                   -1.34909000           0.70732000           2.27219000         
 H                   -0.50525000          -1.54626000           1.33993000         
 H                    2.90628000          -0.94744000          -1.69433000         
 H                    2.06326000           0.24340000          -2.53718000         
 H                   -2.92979000           0.88869000          -0.00909000         
 H                   -2.24053000          -0.71909000          -0.33443000         
 H                   -2.34123000           0.48575000          -1.62282000         
 H                   -0.91855000           0.52160000           3.25029000         
 H                   -2.18529000           0.02805000           2.12800000         
 H                   -1.71411000           1.72780000           2.23970000         
21
Image 13 energy:-0.07647 
 O                    0.14333000           0.47324000          -1.21872000         
 C                    1.11954000          -0.43996000          -0.90615000         
 C                    1.17004000          -1.11460000           0.24395000         
 N                    0.24046000          -0.85875000           1.28818000         
 H                    1.92618000          -1.83824000           0.45190000         
 N                    2.01164000          -0.58634000          -1.96782000         
 C                   -0.77778000           0.87995000          -0.20941000         
 C                   -0.28102000           0.48984000           1.20685000         
 H                   -0.80218000           1.98692000          -0.27617000         
 C                   -2.17647000           0.36994000          -0.55382000         
 H                    0.57122000           1.15355000           1.42471000         
 C                   -1.35205000           0.69822000           2.27041000         
 H                   -0.50493000          -1.55133000           1.32878000         
 H                    2.91474000          -0.94265000          -1.69895000         
 H                    2.06743000           0.24765000          -2.53979000         
 H                   -2.93664000           0.92170000          -0.00078000         
 H                   -2.27099000          -0.69231000          -0.33427000         
 H                   -2.34088000           0.50908000          -1.61890000         
 H                   -0.92009000           0.53502000           3.25695000         
 H                   -2.17723000           0.00528000           2.13642000         
 H                   -1.73403000           1.71500000           2.22443000         
21
Image 14 energy:-0.07590 
 O                    0.13110000           0.45119000          -1.22615000         
 C                    1.12287000          -0.44178000          -0.90525000         
 C                    1.18246000          -1.10920000           0.24931000         
 N                    0.24421000          -0.85769000           1.28651000         
 H                    1.95407000          -1.83611000           0.46223000         
 N                    2.01766000          -0.58169000          -1.96458000         
 C                   -0.77769000           0.88085000          -0.20921000         
 C                   -0.28305000           0.49003000           1.20646000         
 H                   -0.77333000           1.97061000          -0.28341000         
 C                   -2.18523000           0.39245000          -0.55016000         
 H                    0.57138000           1.14663000           1.42891000         
 C                   -1.35477000           0.69015000           2.26904000         
 H                   -0.50056000          -1.55001000           1.31636000         
 H                    2.92199000          -0.93359000          -1.69459000         
 H                    2.06421000           0.24342000          -2.53795000         
 H                   -2.92611000           0.95543000           0.00655000         
 H                   -2.29334000          -0.67057000          -0.33916000         
 H                   -2.35620000           0.54444000          -1.61490000         
 H                   -0.91616000           0.53692000           3.24666000         
 H                   -2.16980000          -0.01509000           2.14422000         
 H                   -1.75298000           1.70050000           2.21616000         
21
Image 15 energy:-0.07523 
 O                    0.11895000           0.42765000          -1.23072000         
 C                    1.12445000          -0.44539000          -0.90422000         
 C                    1.19294000          -1.10534000           0.25420000         
 N                    0.24635000          -0.85651000           1.28548000         
 H                    1.97133000          -1.81502000           0.47399000         
 N                    2.01976000          -0.57415000          -1.96237000         
 C                   -0.77076000           0.87519000          -0.21573000         
 C                   -0.28256000           0.48909000           1.20538000         
 H                   -0.77107000           1.98944000          -0.28172000         
 C                   -2.19098000           0.41572000          -0.54782000         
 H                    0.56995000           1.14250000           1.43195000         
 C                   -1.35711000           0.68468000           2.26897000         
 H                   -0.49710000          -1.55087000           1.30716000         
 H                    2.92224000          -0.91800000          -1.68072000         
 H                    2.07607000           0.26169000          -2.52985000         
 H                   -2.92646000           0.97879000           0.02024000         
 H                   -2.30777000          -0.64919000          -0.34418000         
 H                   -2.36557000           0.57681000          -1.60991000         
 H                   -0.91625000           0.54270000           3.24913000         
 H                   -2.16043000          -0.03706000           2.15079000         
 H                   -1.77333000           1.68697000           2.21307000         
21
Image 16 energy:-0.07474 
 O                    0.10702000           0.40664000          -1.23584000         
 C                    1.12972000          -0.44636000          -0.90344000         
 C                    1.20381000          -1.09301000           0.25983000         
 N                    0.24797000          -0.85870000           1.28623000         
 H                    1.99881000          -1.78518000           0.49172000         
 N                    2.02582000          -0.57475000          -1.96188000         
 C                   -0.77484000           0.88164000          -0.21291000         
 C                   -0.28349000           0.48738000           1.20380000         
 H                   -0.73574000           1.96933000          -0.29343000         
 C                   -2.19653000           0.43628000          -0.54765000         
 H                    0.56270000           1.15617000           1.43148000         
 C                   -1.35849000           0.67498000           2.26799000         
 H                   -0.49532000          -1.55524000           1.29596000         
 H                    2.93544000          -0.91926000          -1.68992000         
 H                    2.06471000           0.25543000          -2.53695000         
 H                   -2.92277000           1.00820000           0.02779000         
 H                   -2.33358000          -0.62554000          -0.35060000         
 H                   -2.36966000           0.60780000          -1.60714000         
 H                   -0.91371000           0.52958000           3.25206000         
 H                   -2.15526000          -0.05533000           2.14152000         
 H                   -1.78164000           1.67406000           2.21991000         
21
Image 17 energy:-0.07410 
 O                    0.09404000           0.38539000          -1.24172000         
 C                    1.13277000          -0.44552000          -0.90309000         
 C                    1.21538000          -1.09121000           0.26616000         
 N                    0.24881000          -0.85564000           1.28311000         
 H                    2.01976000          -1.75990000           0.50468000         
 N                    2.03212000          -0.57033000          -1.95946000         
 C                   -0.77023000           0.87577000          -0.21769000         
 C                   -0.28622000           0.48815000           1.20524000         
 H                   -0.73208000           1.98395000          -0.29733000         
 C                   -2.20299000           0.45639000          -0.54227000         
 H                    0.56405000           1.14782000           1.43805000         
 C                   -1.36067000           0.66835000           2.26848000         
 H                   -0.49101000          -1.55210000           1.27733000         
 H                    2.94349000          -0.89458000          -1.68870000         
 H                    2.05780000           0.24398000          -2.53958000         