5
Coordinates from ORCA-job orca Relaxed Surface Scan Step 1 E -499.944028780089
  C      -0.011361      0.000097     -0.000042
  Cl      6.988639     -0.000284     -0.000127
  H      -0.005870      0.127880     -1.069946
  H      -0.016667      0.862758      0.645612
  H      -0.009881     -0.990371      0.424263
>
5
Coordinates from ORCA-job orca Relaxed Surface Scan Step 2 E -499.944069297757
  C       0.009847      0.000108     -0.000013
  Cl      6.908284     -0.000317     -0.000202
  H       0.014151      0.127898     -1.069947
  H       0.002725      0.862784      0.645631
  H       0.009853     -0.990393      0.424291
>
5
Coordinates from ORCA-job orca Relaxed Surface Scan Step 3 E -499.944076783282
  C       0.030218      0.000116      0.000007
  Cl      6.827093     -0.000349     -0.000281
  H       0.034747      0.127908     -1.069927
  H       0.022669      0.862792      0.645649
  H       0.030133     -0.990387      0.424312
>
5
Coordinates from ORCA-job orca Relaxed Surface Scan Step 4 E -499.944085000483
  C       0.050600      0.000124      0.000026
  Cl      6.745912     -0.000382     -0.000357
  H       0.055322      0.127918     -1.069908
  H       0.042611      0.862799      0.645667
  H       0.050416     -0.990379      0.424332
>
5
Coordinates from ORCA-job orca Relaxed Surface Scan Step 5 E -499.944094148346
  C       0.070982      0.000132      0.000045
  Cl      6.664732     -0.000412     -0.000429
  H       0.075883      0.127927     -1.069890
  H       0.062566      0.862806      0.645683
  H       0.070696     -0.990373      0.424351
>
5
Coordinates from ORCA-job orca Relaxed Surface Scan Step 6 E -499.944104462363
  C       0.091367      0.000141      0.000065
  Cl      6.583554     -0.000446     -0.000507
  H       0.096462      0.127937     -1.069869
  H       0.082502      0.862813      0.645700
  H       0.090975     -0.990365      0.424371
>
5
Coordinates from ORCA-job orca Relaxed Surface Scan Step 7 E -499.944116328511
  C       0.111760      0.000150      0.000083
  Cl      6.502385     -0.000480     -0.000580
  H       0.117018      0.127946     -1.069851
  H       0.102437      0.862821      0.645717
  H       0.111260     -0.990357      0.424390
>
5
Coordinates from ORCA-job orca Relaxed Surface Scan Step 8 E -499.944130049084
  C       0.132147      0.000158      0.000103
  Cl      6.421210     -0.000511     -0.000655
  H       0.137586      0.127956     -1.069831
  H       0.122383      0.862827      0.645733
  H       0.131534     -0.990350      0.424410
>
5
Coordinates from ORCA-job orca Relaxed Surface Scan Step 9 E -499.944146050554
  C       0.152543      0.000166      0.000121
  Cl      6.340043     -0.000542     -0.000726
  H       0.158132      0.127964     -1.069814
  H       0.142335      0.862834      0.645750
  H       0.151807     -0.990343      0.424428
>
5
Coordinates from ORCA-job orca Relaxed Surface Scan Step 10 E -499.944164710424
  C       0.172955      0.000174      0.000139
  Cl      6.258892     -0.000572     -0.000792
  H       0.178652      0.127973     -1.069797
  H       0.162287      0.862842      0.645765
  H       0.172075     -0.990338      0.424446
>
5
Coordinates from ORCA-job orca Relaxed Surface Scan Step 11 E -499.944186229847
  C       0.193380      0.000181      0.000156
  Cl      6.177755     -0.000595     -0.000853
  H       0.199145      0.127980     -1.069783
  H       0.182266      0.862847      0.645778
  H       0.192316     -0.990333      0.424462
>
5
Coordinates from ORCA-job orca Relaxed Surface Scan Step 12 E -499.944211143119
  C       0.213826      0.000187      0.000170
  Cl      6.096638     -0.000617     -0.000907
  H       0.219599      0.127988     -1.069770
  H       0.202246      0.862852      0.645790
  H       0.212551     -0.990330      0.424477
>
5
Coordinates from ORCA-job orca Relaxed Surface Scan Step 13 E -499.944239716527
  C       0.234325      0.000192      0.000184
  Cl      6.015575     -0.000633     -0.000953
  H       0.239992      0.127992     -1.069760
  H       0.222226      0.862856      0.645801
  H       0.232742     -0.990327      0.424489
>
5
Coordinates from ORCA-job orca Relaxed Surface Scan Step 14 E -499.944271667626
  C       0.254850      0.000196      0.000197
  Cl      5.934538     -0.000643     -0.000997
  H       0.260360      0.127996     -1.069751
  H       0.242212      0.862859      0.645810
  H       0.252900     -0.990327      0.424501
>
5
Coordinates from ORCA-job orca Relaxed Surface Scan Step 15 E -499.944305943280
  C       0.275362      0.000199      0.000208
  Cl      5.853487     -0.000650     -0.001034
  H       0.280720      0.127999     -1.069745
  H       0.262229      0.862862      0.645819
  H       0.273063     -0.990329      0.424512
>
5
Coordinates from ORCA-job orca Relaxed Surface Scan Step 16 E -499.944340493700
  C       0.295880      0.000200      0.000217
  Cl      5.772442     -0.000651     -0.001058
  H       0.301030      0.128000     -1.069741
  H       0.282283      0.862862      0.645825
  H       0.293224     -0.990330      0.424518
>
5
Coordinates from ORCA-job orca Relaxed Surface Scan Step 17 E -499.944375160623
  C       0.316340      0.000199      0.000223
  Cl      5.691340     -0.000643     -0.001076
  H       0.321362      0.127999     -1.069740
  H       0.302415      0.862862      0.645829
  H       0.313403     -0.990337      0.424524
>
5
Coordinates from ORCA-job orca Relaxed Surface Scan Step 18 E -499.944410488475
  C       0.336685      0.000199      0.000227
  Cl      5.610122     -0.000640     -0.001091
  H       0.341759      0.127998     -1.069741
  H       0.322615      0.862865      0.645835
  H       0.333679     -0.990342      0.424528
>
5
Coordinates from ORCA-job orca Relaxed Surface Scan Step 19 E -499.944447100437
  C       0.357024      0.000200      0.000235
  Cl      5.528899     -0.000645     -0.001121
  H       0.362207      0.128001     -1.069736
  H       0.342770      0.862868      0.645844
  H       0.353960     -0.990344      0.424538
>
5
Coordinates from ORCA-job orca Relaxed Surface Scan Step 20 E -499.944491929655
  C       0.377365      0.000201      0.000244
  Cl      5.447678     -0.000647     -0.001152
  H       0.382656      0.128002     -1.069733
  H       0.362930      0.862872      0.645853
  H       0.374231     -0.990349      0.424548
>
5
Coordinates from ORCA-job orca Relaxed Surface Scan Step 21 E -499.944548448356
  C       0.397735      0.000200      0.000252
  Cl      5.366484     -0.000644     -0.001182
  H       0.403085      0.128004     -1.069731
  H       0.383083      0.862875      0.645862
  H       0.394473     -0.990355      0.424558
>
5
Coordinates from ORCA-job orca Relaxed Surface Scan Step 22 E -499.944623001151
  C       0.418080      0.000203      0.000266
  Cl      5.285267     -0.000653     -0.001231
  H       0.423582      0.128008     -1.069726
  H       0.403192      0.862882      0.645877
  H       0.414739     -0.990360      0.424574
>
5
Coordinates from ORCA-job orca Relaxed Surface Scan Step 23 E -499.944721815465
  C       0.438753      0.000202      0.000274
  Cl      5.204377     -0.000639     -0.001245
  H       0.443767      0.128004     -1.069729
  H       0.423196      0.862884      0.645882
  H       0.434767     -0.990371      0.424578
>
5
Coordinates from ORCA-job orca Relaxed Surface Scan Step 24 E -499.944850341762
  C       0.459433      0.000197      0.000276
  Cl      5.123495     -0.000613     -0.001239
  H       0.463893      0.127999     -1.069744
  H       0.443260      0.862883      0.645886
  H       0.454778     -0.990387      0.424581
>
5
Coordinates from ORCA-job orca Relaxed Surface Scan Step 25 E -499.945010504419
  C       0.480386      0.000191      0.000272
  Cl      5.042886     -0.000571     -0.001185
  H       0.483705      0.127986     -1.069766
  H       0.463261      0.862879      0.645874
  H       0.474622     -0.990405      0.424565
>
5
Coordinates from ORCA-job orca Relaxed Surface Scan Step 26 E -499.945213468659
  C       0.501421      0.000182      0.000266
  Cl      4.962358     -0.000521     -0.001131
  H       0.503465      0.127974     -1.069792
  H       0.483228      0.862871      0.645864
  H       0.494388     -0.990426      0.424553
>
5
Coordinates from ORCA-job orca Relaxed Surface Scan Step 27 E -499.945459068058
  C       0.522436      0.000169      0.000251
  Cl      4.881811     -0.000452     -0.001036
  H       0.523137      0.127954     -1.069828
  H       0.503312      0.862862      0.645845
  H       0.514164     -0.990454      0.424528
>
5
Coordinates from ORCA-job orca Relaxed Surface Scan Step 28 E -499.945761763177
  C       0.543572      0.000150      0.000224
  Cl      4.801385     -0.000359     -0.000893
  H       0.542606      0.127927     -1.069872
  H       0.523444      0.862843      0.645813
  H       0.533853     -0.990481      0.424490
>
5
Coordinates from ORCA-job orca Relaxed Surface Scan Step 29 E -499.946156685476
  C       0.564459      0.000131      0.000201
  Cl      4.720709     -0.000276     -0.000786
  H       0.562332      0.127907     -1.069919
  H       0.543666      0.862835      0.645796
  H       0.553694     -0.990517      0.424468
>
5
Coordinates from ORCA-job orca Relaxed Surface Scan Step 30 E -499.946671943847
  C       0.585863      0.000103      0.000155
  Cl      4.640551     -0.000146     -0.000557
  H       0.581419      0.127867     -1.069981
  H       0.563823      0.862809      0.645741
  H       0.573203     -0.990554      0.424402
>
5
Coordinates from ORCA-job orca Relaxed Surface Scan Step 31 E -499.947344042582
  C       0.607415      0.000067      0.000094
  Cl      4.560540      0.000007     -0.000283
  H       0.600305      0.127826     -1.070058
  H       0.583996      0.862774      0.645677
  H       0.592605     -0.990595      0.424331
>
5
Coordinates from ORCA-job orca Relaxed Surface Scan Step 32 E -499.948216098076
  C       0.629162      0.000022      0.000011
  Cl      4.480725      0.000199      0.000068
  H       0.618887      0.127771     -1.070148
  H       0.604222      0.862731      0.645592
  H       0.611864     -0.990643      0.424236
>
5
Coordinates from ORCA-job orca Relaxed Surface Scan Step 33 E -499.949332931183
  C       0.651165     -0.000025     -0.000074
  Cl      4.401165      0.000391      0.000425
  H       0.637286      0.127718     -1.070231
  H       0.624286      0.862675      0.645501
  H       0.630959     -0.990679      0.424140
>
5
Coordinates from ORCA-job orca Relaxed Surface Scan Step 34 E -499.950748631562
  C       0.673283     -0.000077     -0.000178
  Cl      4.321720      0.000598      0.000846
  H       0.655468      0.127658     -1.070320
  H       0.644388      0.862617      0.645391
  H       0.650002     -0.990716      0.424021
>
5
Coordinates from ORCA-job orca Relaxed Surface Scan Step 35 E -499.952527378585
  C       0.695443     -0.000125     -0.000276
  Cl      4.242318      0.000779      0.001224
  H       0.673710      0.127608     -1.070392
  H       0.664356      0.862556      0.645286
  H       0.669033     -0.990738      0.423917
>
5
Coordinates from ORCA-job orca Relaxed Surface Scan Step 36 E -499.954725409816
  C       0.717716     -0.000170     -0.000369
  Cl      4.163027      0.000945      0.001572
  H       0.691939      0.127563     -1.070451
  H       0.684183      0.862495      0.645187
  H       0.687994     -0.990753      0.423821
>
5
Coordinates from ORCA-job orca Relaxed Surface Scan Step 37 E -499.957423071515
  C       0.740346     -0.000204     -0.000445
  Cl      4.084095      0.001067      0.001852
  H       0.710063      0.127525     -1.070454
  H       0.703613      0.862413      0.645081
  H       0.706744     -0.990720      0.423726
>
5
Coordinates from ORCA-job orca Relaxed Surface Scan Step 38 E -499.960685584235
  C       0.763341     -0.000228     -0.000502
  Cl      4.005528      0.001153      0.002070
  H       0.728059      0.127493     -1.070424
  H       0.722663      0.862327      0.644978
  H       0.725270     -0.990665      0.423638
>
5
Coordinates from ORCA-job orca Relaxed Surface Scan Step 39 E -499.964590620240
  C       0.786786     -0.000246     -0.000549
  Cl      3.927410      0.001214      0.002239
  H       0.745848      0.127464     -1.070335
  H       0.741314      0.862209      0.644858
  H       0.743502     -0.990560      0.423546
>
5
Coordinates from ORCA-job orca Relaxed Surface Scan Step 40 E -499.969250932120
  C       0.810986     -0.000256     -0.000580
  Cl      3.850047      0.001251      0.002361
  H       0.763220      0.127428     -1.070151
  H       0.759369      0.862028      0.644700
  H       0.761238     -0.990372      0.423431
>
5
Coordinates from ORCA-job orca Relaxed Surface Scan Step 41 E -499.974815072152
  C       0.836205     -0.000259     -0.000597
  Cl      3.773703      0.001264      0.002431
  H       0.780005      0.127384     -1.069822
  H       0.776650      0.861746      0.644472
  H       0.778298     -0.990055      0.423275
>
5
Coordinates from ORCA-job orca Relaxed Surface Scan Step 42 E -499.981507069816
  C       0.862940     -0.000255     -0.000601
  Cl      3.698876      0.001259      0.002463
  H       0.795844      0.127317     -1.069272
  H       0.792850      0.861295      0.644125
  H       0.794350     -0.989536      0.423044
>
5
Coordinates from ORCA-job orca Relaxed Surface Scan Step 43 E -499.989693398487
  C       0.891880     -0.000245     -0.000595
  Cl      3.626253      0.001237      0.002470
  H       0.810258      0.127212     -1.068368
  H       0.807525      0.860565      0.643574
  H       0.808943     -0.988690      0.422680
>
5
Coordinates from ORCA-job orca Relaxed Surface Scan Step 44 E -499.999931889823
  C       0.923202     -0.000232     -0.000575
  Cl      3.556013      0.001210      0.002440
  H       0.823149      0.127039     -1.066888
  H       0.820565      0.859378      0.642687
  H       0.821931     -0.987315      0.422097
>
5
Coordinates from ORCA-job orca Relaxed Surface Scan Step 45 E -500.011318079539
  C       0.955208     -0.000215     -0.000547
  Cl      3.486456      0.001175      0.002385
  H       0.835623      0.126789     -1.064736
  H       0.833113      0.857652      0.641402
  H       0.834460     -0.985321      0.421256
>
5
Coordinates from ORCA-job orca Relaxed Surface Scan Step 46 E -500.023225333270
  C       0.989094     -0.000196     -0.000514
  Cl      3.418780      0.001136      0.002324
  H       0.846855      0.126461     -1.061926
  H       0.844394      0.855398      0.639721
  H       0.845737     -0.982719      0.420155
>
5
Coordinates from ORCA-job orca Relaxed Surface Scan Step 47 E -500.035497981925
  C       1.024830     -0.000177     -0.000476
  Cl      3.352953      0.001103      0.002257
  H       0.856866      0.126037     -1.058316
  H       0.854442      0.852500      0.637558
  H       0.855769     -0.979382      0.418737
>
5
Coordinates from ORCA-job orca Relaxed Surface Scan Step 48 E -500.047884263713
  C       1.062260     -0.000159     -0.000437
  Cl      3.288820      0.001073      0.002193
  H       0.865747      0.125502     -1.053788
  H       0.863364      0.848859      0.634838
  H       0.864669     -0.975195      0.416954
>
5
Coordinates from ORCA-job orca Relaxed Surface Scan Step 49 E -500.059964164420
  C       1.101144     -0.000136     -0.000392
  Cl      3.226142      0.001040      0.002121
  H       0.873670      0.124847     -1.048261
  H       0.871306      0.844413      0.631516
  H       0.872598     -0.970084      0.414776
>
5
Coordinates from ORCA-job orca Relaxed Surface Scan Step 50 E -500.071045202719
  C       1.141167     -0.000116     -0.000349
  Cl      3.164603      0.001012      0.002052
  H       0.880831      0.124065     -1.041669
  H       0.878497      0.839103      0.627550
  H       0.879763     -0.963984      0.412175
>
5
Coordinates from ORCA-job orca Relaxed Surface Scan Step 51 E -500.080066156549
  C       1.182047     -0.000094     -0.000301
  Cl      3.103920      0.000979      0.001981
  H       0.887423      0.123161     -1.034041
  H       0.885107      0.832961      0.622957
  H       0.886363     -0.956927      0.409164
>
5
Coordinates from ORCA-job orca Relaxed Surface Scan Step 52 E -500.085335070714
  C       1.223550     -0.000073     -0.000254
  Cl      3.043861      0.000946      0.001908
  H       0.893602      0.122144     -1.025460
  H       0.891301      0.826049      0.617791
  H       0.892546     -0.948987      0.405776
>
5
Coordinates from ORCA-job orca Relaxed Surface Scan Step 53 E -500.084250442933
  C       1.265543     -0.000051     -0.000203
  Cl      2.984292      0.000912      0.001831
  H       0.899459      0.121031     -1.016067
  H       0.897165      0.818484      0.612133
  H       0.898402     -0.940295      0.402066
>
5
Coordinates from ORCA-job orca Relaxed Surface Scan Step 54 E -500.072747269800
  C       1.308057     -0.000028     -0.000152
  Cl      2.925243      0.000880      0.001758
  H       0.904962      0.119839     -1.006049
  H       0.902687      0.810414      0.606099
  H       0.903910     -0.931025      0.398105
>
5
Coordinates from ORCA-job orca Relaxed Surface Scan Step 55 E -500.044467597813
  C       1.351218     -0.000004     -0.000102
  Cl      2.866841      0.000851      0.001688
  H       0.910034      0.118601     -0.995693
  H       0.907782      0.802065      0.599862
  H       0.908985     -0.921434      0.394005
>
5
Coordinates from ORCA-job orca Relaxed Surface Scan Step 56 E -499.989387383358
  C       1.395382      0.000023     -0.000054
  Cl      2.809443      0.000825      0.001620
  H       0.914436      0.117359     -0.985345
  H       0.912211      0.793719      0.593632
  H       0.913388     -0.911846      0.389906
>
5
Coordinates from ORCA-job orca Relaxed Surface Scan Step 57 E -499.891618801313
  C       1.441049      0.000048     -0.000002
  Cl      2.753548      0.000797      0.001554
  H       0.917836      0.116187     -0.975533
  H       0.915635      0.785804      0.587719
  H       0.916792     -0.902757      0.386022
>
5
Coordinates from ORCA-job orca Relaxed Surface Scan Step 58 E -499.725692581650
  C       1.488850      0.000072      0.000055
  Cl      2.699787      0.000765      0.001487
  H       0.919817      0.115183     -0.967042
  H       0.917626      0.778962      0.582595
  H       0.918780     -0.894901      0.382665
>
5
Coordinates from ORCA-job orca Relaxed Surface Scan Step 59 E -499.450386493187
  C       1.539448      0.000096      0.000118
  Cl      2.648822      0.000731      0.001421
  H       0.919937      0.114462     -0.960869
  H       0.917746      0.773993      0.578862
  H       0.918907     -0.889202      0.380228
>
5
Coordinates from ORCA-job orca Relaxed Surface Scan Step 60 E -498.998761098511
  C       1.593856      0.000118      0.000182
  Cl      2.601668      0.000698      0.001368
  H       0.917511      0.114168     -0.958271
  H       0.915325      0.771901      0.577278
  H       0.916500     -0.886806      0.379203
>
5
Coordinates from ORCA-job orca Relaxed Surface Scan Step 61 E -498.263136664597
  C       1.653864      0.000153      0.000252
  Cl      2.560113      0.000671      0.001321
  H       0.911359      0.114314     -0.959480
  H       0.909171      0.772859      0.577991
  H       0.910352     -0.887917      0.379677
>
5
Coordinates from ORCA-job orca Relaxed Surface Scan Step 62 E -497.080850763522
  C       1.724717      0.000207      0.000342
  Cl      2.529404      0.000657      0.001287
  H       0.897975      0.114482     -0.961099
  H       0.895802      0.774105      0.578941
  H       0.896962     -0.889372      0.380289
>
5
Coordinates from ORCA-job orca Relaxed Surface Scan Step 63 E -495.256245387467
  C       1.825107      0.000280      0.000649
  Cl      2.528232      0.000653      0.001354
  H       0.864692      0.113361     -0.951403
  H       0.862867      0.765895      0.572798
  H       0.863961     -0.880109      0.376362
>
5
Coordinates from ORCA-job orca Relaxed Surface Scan Step 64 E -492.748072299234
  C       2.717664     -0.216560     -0.132570
  Cl      3.101461      0.206560      0.055966
  H      -0.248203      1.695084     -1.727831
  H       1.941420     -1.081864     -0.517246
  H      -0.567482     -0.603140      2.321442
