24
xtb energy = -43.217182063737
C                     0.99002641          -0.87110281          -0.05219877         
C                    -0.34830000          -0.84870000          -0.71390000         
C                     1.50852778           0.60990505          -0.17537092         
C                    -1.50170000          -0.24950000          -0.11190000         
C                     2.97144278           0.70168829           0.29563953         
C                    -2.57525710           0.39895962          -0.81969460         
O                     0.98755722          -1.29073337           1.27734162         
O                    -1.18580000          -2.61730000          -0.64440000         
O                     1.40350290           1.08512951          -1.48639020         
O                    -1.42934165           0.09442193           1.25360020         
O                     3.83950412           0.28607864          -0.73320119         
O                    -3.41369028           1.05788517          -0.22529687         
H                     0.26655207          -0.82546153           1.73072898         
H                    -0.81819981          -3.20400148           0.02346374         
H                     2.28957676           1.02393590          -1.88133904         
H                    -2.20928045           0.65873295           1.40202107         
H                     3.82353639          -0.67527847          -0.79725277         
H                     1.66309199          -1.54566847          -0.59412204         
H                    -0.32641567          -0.83652407          -1.79490814         
H                     0.86979226           1.22618104           0.46784602         
H                    -1.82500000          -1.60900000          -0.17830000         
H                     3.22015273           1.74841350           0.48455535         
H                     3.11048063           0.12213008           1.21271443         
H                    -2.60873511           0.23608707          -1.90549400         
