24
xtb energy = -43.22852321893
C                     0.45264982          -0.66210940          -0.41370879         
C                    -0.83293884          -0.56244851          -1.34492591         
C                     1.71266561           0.09721445          -0.87212159         
C                    -2.15160000          -0.29850000          -0.49230000         
C                     2.90158563          -0.46026734          -0.06755250         
C                    -2.48020000          -0.94200000           0.72460000         
O                     0.07310000          -0.03130000           0.86590000         
O                    -0.65593762           0.52345922          -2.23121844         
O                     2.01591592          -0.06357312          -2.22970370         
O                    -3.04602420           0.50674394          -1.20494108         
O                     3.20012611          -1.76912573          -0.46424106         
O                    -1.63160000          -1.59770000           1.43130000         
H                    -0.53430000          -0.96600000           1.21670000         
H                    -1.52620577           0.91705282          -2.39037108         
H                     1.28304069           0.31158083          -2.73587921         
H                    -3.94589646           0.30601678          -0.93374213         
H                     3.27446788          -1.75961782          -1.42792999         
H                     0.71204813          -1.71430920          -0.25663366         
H                    -0.93826008          -1.48811013          -1.93340458         
H                     1.56942030           1.15763257          -0.61666119         
H                    -0.85880000           0.19280000           0.15770000         
H                     3.76682887           0.20018099          -0.20584753         
H                     2.64677620          -0.49756434           0.99364233         
H                    -3.51168663          -0.88085046           1.07130898         
