48
xtb energy = -65.703115255196
Si                   -0.19813888           2.95198166           0.90450401         
C                     0.79033068           4.53130153           0.55091675         
H                     1.85491564           4.32894622           0.60264071         
H                     0.56007456           5.31029180           1.26977360         
H                     0.57869189           4.92271574          -0.43980065         
C                    -2.06249021           3.26759610           0.60228844         
H                    -2.67917596           2.41217756           0.86681845         
H                    -2.26374268           3.51609235          -0.43675387         
H                    -2.40634064           4.10473217           1.20158656         
C                     0.03167793           2.29623378           2.67798859         
O                     0.48712828           1.90657811          -0.14646367         
H                     1.06262855           1.98965549           2.82875896         
H                    -0.59876402           1.43443528           2.88372777         
H                    -0.20061873           3.05440875           3.41884503         
C                     0.29120000           0.71850000          -0.76430000         
C                    -1.01990000           0.42900000          -1.17250000         
H                    -1.18953524          -0.23112969          -2.00151986         
H                    -1.75401126           1.19371075          -1.00896963         
C                     1.41740000          -0.11900000          -0.75670000         
C                     2.28096887           0.20283579           0.42893064         
O                     2.05531955          -0.63754169           1.46581214         
C                     1.56930507          -1.58251556          -1.19351371         
C                    -0.74370000          -2.09710000          -0.32900000         
C                    -1.62000000          -1.19310000           0.27560000         
C                    -1.20297341          -2.89313723          -1.52221912         
O                     3.03623068           1.12487565           0.54765757         
C                    -3.10518761          -1.29663578           0.12404606         
C                    -2.67131132          -3.27417040          -1.34884087         
H                    -1.09296867          -2.32148919          -2.44913147         
H                    -0.58672989          -3.78927798          -1.61568427         
C                    -3.51398310          -2.01776792          -1.15790718         
H                    -3.56131870          -0.30585848           0.16644819         
H                    -3.48045979          -1.85702557           0.98917102         
H                    -2.77861271          -3.92130063          -0.47564641         
H                    -3.01474410          -3.82890831          -2.22389513         
H                    -3.37202493          -1.35532141          -2.01333461         
H                    -4.57309961          -2.27761370          -1.10954485         
C                     2.94259333          -2.16816661          -0.83707714         
C                     0.64560000          -1.96990000          -0.07240000         
H                     1.24073434          -1.76914720          -2.21103029         
C                     1.54663115          -1.93489906           1.12613505         
C                     2.75717382          -2.72620222           0.58857007         
H                     2.51787783          -3.78926797           0.56363522         
H                     3.63258022          -2.57401838           1.21759025         
H                     3.71870287          -1.40286796          -0.86503777         
H                     3.22047116          -2.95733139          -1.53424560         
H                     1.11130400          -2.33740208           2.04133712         
H                    -1.27430621          -0.66503174           1.15468621         
