47
xtb energy = -62.949841109815
C                     2.85682125          -1.96129912          -1.06001229         
C                     2.75613882          -0.54381491          -1.81552736         
C                     1.58007885           0.51394421          -2.10631943         
H                     3.07040371          -0.82273653          -2.82678929         
H                     3.59080553           0.04229028          -1.42150891         
C                     0.56150000           0.80030000          -0.98000000         
H                     1.01960511           0.16936028          -2.98017167         
H                     2.09255688           1.42187151          -2.42805514         
C                     4.34800673          -2.32187087          -1.13835386         
H                     4.72430629          -2.25814339          -2.15666892         
H                     4.50285812          -3.34148361          -0.79061066         
H                     4.93929063          -1.65545003          -0.51225501         
C                     2.42921485          -2.18201794           0.45224746         
H                     2.33653896          -2.70574512          -1.66213582         
C                     2.12860000          -0.85110000           1.00620000         
H                     3.27558269          -2.61733825           0.99292866         
H                     1.61033334          -2.89682054           0.54392535         
C                     1.81960000           0.14090000           1.93060000         
C                     1.68760000           1.48750000           1.58640000         
C                     0.34160000          -0.50100000          -0.47370000         
C                    -0.57670840          -0.39445315           0.68056273         
C                     0.06547845          -1.69731396          -1.34592397         
H                    -0.98512899          -1.61895210          -1.63889875         
H                     0.16771134          -2.64094342          -0.82056383         
H                     0.63895283          -1.73557354          -2.25898696         
O                    -0.74919493           0.67344326           1.24779125         
C                    -1.31795594          -1.62875799           1.20394414         
C                    -2.45583518          -2.01186642           0.30403287         
H                    -1.74618892          -1.34715711           2.16994546         
H                    -0.66263561          -2.48892009           1.34156851         
S                    -3.35450373          -0.59553643          -0.28593018         
C                    -4.59777266          -1.40989043          -1.32884465         
H                    -4.42072087          -1.13514362          -2.36425707         
H                    -5.58250910          -1.08107094          -1.01376249         
H                    -4.48017367          -2.48202860          -1.18684920         
O                    -2.76913310          -3.13139246          -0.00289843         
C                     1.90560000           1.95610000           0.28720000         
C                     1.60684491           3.32532705          -0.09457079         
C                     2.21164368           3.94994065          -1.10048471         
H                    -0.11029083           1.62734135          -0.93420621         
H                     0.82819939           3.82524244           0.46555958         
H                     2.99641367           3.47923844          -1.67224586         
H                     1.96311962           4.95735478          -1.38578425         
H                     1.21783732           2.13815702           2.30662522         
H                     2.74027943           1.53775865          -0.25248914         
H                     2.63563265          -0.22608063           0.27013348         
H                     1.47009044          -0.12061713           2.92887492         
