12
xtb energy = -21.496253867063
C                     1.32516913           1.20078366          -0.01847104         
C                    -0.12331102           1.69905238          -0.01425090         
C                    -0.96050000           0.45920000          -0.37370000         
O                     1.33890905           0.11365708           0.88207676         
O                     0.20740000          -0.64770000           0.52910000         
O                    -1.84610000           0.13160000           0.51970000         
H                    -0.98380000          -0.71530000           0.85150000         
H                     1.61263406           0.88373392          -1.03131952         
H                     2.06467506           1.89901436           0.37017705         
H                    -1.05519665           0.16667857          -1.41736097         
H                    -0.29389385           2.56558025          -0.64542066         
H                    -0.37782054           1.94627681           1.02426414         
