56
xtb energy = -94.115904817553
C                    -1.39023284          -2.65029760          -1.84539943         
C                    -1.13533517          -2.69303205          -3.33943132         
C                    -2.58407892          -1.74933188          -1.48813776         
O                    -2.91124003          -0.79306651          -2.16822743         
O                    -0.78837242          -2.81537066           0.88486918         
O                     2.12713498          -0.75754352          -1.40432670         
N                    -0.27135468          -2.01484732          -1.15835313         
C                    -0.09670118          -2.11436752           0.16318335         
C                     0.97894839          -1.19742792           0.77327639         
C                     2.27558744          -1.05317141          -0.04332853         
N                     0.32840000           0.07560000           1.13100000         
N                    -3.15230964          -2.05083033          -0.30388606         
C                    -3.93299013          -1.04886969           0.41348344         
C                    -4.73885072          -1.69180224           1.52659707         
C                    -2.87863796          -0.08204162           0.96522230         
O                    -2.36394294          -0.20958544           2.06291303         
N                    -2.48694278           0.86108074           0.08976694         
O                     0.45041651           1.24326697          -0.99919553         
O                     0.91780000           2.28900000           1.35740000         
C                    -1.44091351           1.80746788           0.42819601         
C                    -0.08200000           1.21160000           0.07910000         
C                    -1.64824914           3.10907284          -0.33245771         
H                    -1.53635180          -3.65302032          -1.42806341         
H                    -1.11912665          -1.67981673          -3.73424402         
H                    -1.93376536          -3.24038324          -3.83291352         
H                    -0.18716735          -3.18072626          -3.54965726         
H                     1.72469211           0.13285043          -1.47775560         
H                     0.40927501          -1.49454370          -1.70704427         
H                     1.26195190          -1.64532385           1.73438588         
H                     2.79769171          -2.01351058          -0.00445988         
H                     2.90512017          -0.30083767           0.45026473         
H                     0.92930000           0.93250000           1.62610000         
H                    -0.48622041          -0.11455425           1.73767508         
H                    -2.66753520          -2.71682927           0.29380327         
H                    -4.57472721          -0.54027672          -0.31238010         
H                    -5.37084891          -0.94593316           2.00105731         
H                    -4.06249884          -2.09701462           2.27545341         
H                    -5.36276761          -2.48783127           1.13028311         
H                    -2.79754716           0.81451109          -0.87439435         
H                    -1.48636857           1.97673520           1.50857784         
H                    -0.94600700           3.85293823           0.03094925         
H                    -2.65974862           3.47315107          -0.17534906         
H                    -1.48169698           2.95010319          -1.39565533         
C                     2.08524963           2.72676368           0.93053064         
C                     3.29060756           2.32945392           1.57048190         
C                     2.17776431           3.58596338          -0.17445264         
C                     4.51173623           2.84743667           1.12573906         
C                     4.57461374           3.68641243           0.03848548         
C                     3.39855536           4.04450708          -0.61475787         
H                     1.27057668           3.86810903          -0.68432678         
H                     5.52535131           4.06003797          -0.30986622         
H                     3.44282986           4.69546996          -1.47571464         
H                     5.41547750           2.54747209           1.63813212         
C                     3.29633576           1.36214530           2.65049729         
O                     2.37851629           0.63294705           2.97251820         
H                     4.26988562           1.28847854           3.17377360         
