92
	Energy:     169.5668146
N         -5.40825        0.80012       -0.16670
C         -6.13487       -0.47340       -0.44068
C         -4.22772        0.80371        0.74511
C         -5.12282       -1.60970       -0.73691
C         -3.29342       -0.38723        0.41101
C         -4.04161       -1.72617        0.35643
C         -4.60972        0.79456        2.24918
C         -3.43556        2.10557        0.49077
C         -7.10434       -0.88744        0.69859
C         -6.99375       -0.26833       -1.70845
O         -3.12685       -2.71495        0.03811
C          5.49063        0.03493       -0.93242
C          4.94508       -1.42763       -0.82414
C          5.30250       -2.00286        0.54920
C          6.83606       -2.15050        0.66188
C          7.65342       -1.01508       -0.04845
C          4.50584        1.00646       -0.24237
C          5.55158        0.42969       -2.43093
C          8.22324       -1.50340       -1.40782
C          8.86337       -0.66646        0.84832
O          4.71783       -3.23576        0.78403
N          6.80106        0.18711       -0.22507
C         -3.37993       -4.04872       -0.03800
C          3.38159       -3.47281        0.88660
O         -4.48958       -4.48783        0.23694
O          2.59051       -2.54667        0.80518
C         -2.25722       -4.96657       -0.49205
C          2.90539       -4.88365        1.21334
C         -1.07938       -4.87844        0.52883
C          3.45405       -5.20768        2.62232
C         -2.79060       -6.40937       -0.65771
C          3.55327       -5.86231        0.22050
C          0.39070       -5.09134        0.00647
C          1.32786       -5.01384        1.28149
C          0.50988       -6.48353       -0.66792
C          0.69593       -3.98553       -1.00158
O          1.07667       -4.25506       -2.13269
O          0.48527       -2.69271       -0.67122
H          8.90610       -2.36636       -1.25145
H          8.80647       -0.69755       -1.90231
H          7.45014       -1.84644       -2.11280
H          4.54888        0.32348       -2.89903
H          6.25577       -0.20627       -2.99907
H          5.86866        1.48667       -2.55906
H          4.86475        2.05398       -0.33819
H          3.49599        0.94517       -0.70285
H          4.40526        0.79311        0.84077
H          9.49791        0.11933        0.38540
H          9.49857       -1.56293        1.01914
H          8.51674       -0.28969        1.83472
H          7.17604       -3.12863        0.25388
H          7.03816       -2.19796        1.75561
H          5.38648       -2.10541       -1.58128
H          3.85402       -1.42491       -1.03098
H          4.95486       -1.29268        1.32923
H         -7.83865       -0.08195        0.91149
H         -6.60728       -1.16259        1.63678
H         -7.67744       -1.79115        0.39781
H         -5.27033        1.65154        2.49919
H         -3.69351        0.88686        2.87186
H         -5.09487       -0.12940        2.58651
H         -4.05135        3.00001        0.72636
H         -2.51755        2.14378        1.11692
H         -3.13113        2.17363       -0.57616
H         -7.52960       -1.20311       -1.98326
H         -7.75151        0.52930       -1.55249
H         -6.35497        0.03112       -2.56726
H         -4.59810       -1.39240       -1.69529
H         -5.66823       -2.56726       -0.87558
H         -2.84123       -0.22450       -0.59451
H         -2.45554       -0.43734        1.14163
H         -4.48593       -1.96026        1.34554
H          3.03920       -4.50372        3.37650
H          3.18104       -6.24180        2.92547
H          4.56315       -5.13050        2.65396
H          3.25238       -6.90855        0.44267
H          4.66225       -5.81542        0.28559
H          3.29784       -5.58583       -0.82245
H         -3.16397       -6.79600        0.31512
H         -3.63143       -6.41604       -1.38415
H         -2.04982       -7.13084       -1.03222
H          1.51174       -6.72467       -1.04339
H         -0.11444       -6.52365       -1.58017
H          0.20586       -7.28955        0.03371
H          1.08683       -5.93440        1.86011
H          0.99388       -4.16974        1.92611
H         -1.93304       -4.57321       -1.47900
H         -1.31182       -5.54501        1.38931
H         -1.07237       -3.84992        0.95500
H          0.64842       -1.97586       -1.30058
O          7.51243        1.23540       -0.71995
O         -6.28029        1.78684        0.17325
