8
Coordinates from ORCA-job orca Relaxed Surface Scan Step 8 E -574.958357656528
  C       0.844967      0.080919      0.313761
  Cl      1.233738      0.111705      1.165046
  H       1.435618      0.034001     -0.734947
  H       0.115796      0.906980     -0.182398
  H       0.099653     -0.769353     -0.115554
  O       3.803591      0.241926     -0.203110
  H       4.588811      0.270183      0.351007
  H       4.126917      0.179619     -1.106124
8
Coordinates from ORCA-job orca Relaxed Surface Scan Step 7 E -575.629942728911
  C       0.790521      0.077833      0.273269
  Cl      1.228642      0.110782      1.221921
  H       1.401029      0.052080     -0.714100
  H       0.072848      0.897707     -0.147693
  H       0.082963     -0.776577     -0.095157
  O       3.845123      0.308656     -0.312783
  H       4.498346      0.239726      0.389431
  H       4.329619      0.145772     -1.127208
8
Coordinates from ORCA-job orca Relaxed Surface Scan Step 6 E -576.027041051035
  C       0.806841      0.060360      0.236499
  Cl      1.387166     -0.020573      1.231310
  H       1.349150      0.157694     -0.751890
  H       0.078596      0.911838      0.042407
  H       0.099240     -0.761886     -0.106155
  O       3.992272      0.515601     -0.587846
  H       3.896042      0.303902      0.346854
  H       4.639784     -0.110955     -0.923499
8
Coordinates from ORCA-job orca Relaxed Surface Scan Step 5 E -576.259803534729
  C       0.781314      0.063146      0.200831
  Cl      1.414732     -0.050605      1.288314
  H       1.359251      0.166936     -0.746791
  H       0.083745      0.926631      0.067984
  H       0.088820     -0.757733     -0.110590
  O       3.993302      0.487565     -0.641126
  H       3.806411      0.320687      0.289511
  H       4.721517     -0.100648     -0.860452
8
Coordinates from ORCA-job orca Relaxed Surface Scan Step 4 E -576.393642274159
  C       0.752197      0.072443      0.166534
  Cl      1.447238     -0.056526      1.343252
  H       1.356197      0.165713     -0.752416
  H       0.081222      0.946633      0.081551
  H       0.069523     -0.755978     -0.097241
  O       3.984105      0.430789     -0.686710
  H       3.732976      0.273371      0.230795
  H       4.825632     -0.020464     -0.798085
8
Coordinates from ORCA-job orca Relaxed Surface Scan Step 3 E -576.467801396158
  C       0.737620      0.077666      0.127612
  Cl      1.471930     -0.062709      1.407014
  H       1.384492      0.170618     -0.752074
  H       0.082538      0.955895      0.077801
  H       0.076490     -0.765564     -0.106929
  O       3.971987      0.429630     -0.693016
  H       3.709237      0.272039      0.221420
  H       4.814797     -0.021594     -0.794147
8
Coordinates from ORCA-job orca Relaxed Surface Scan Step 2 E -576.505804899345
  C       0.724580      0.082698      0.089830
  Cl      1.490544     -0.069232      1.475906
  H       1.415739      0.175241     -0.748531
  H       0.083260      0.964981      0.071279
  H       0.083359     -0.774850     -0.119221
  O       3.959451      0.428836     -0.699761
  H       3.689466      0.271272      0.212668
  H       4.802691     -0.022965     -0.794490
8
Coordinates from ORCA-job orca Relaxed Surface Scan Step 1 E -576.521981376086
  C       0.711922      0.087908      0.047735
  Cl      1.535835     -0.073975      1.525896
  H       1.428320      0.179214     -0.764633
  H       0.083647      0.974455      0.071429
  H       0.086392     -0.784539     -0.122448
  O       3.945212      0.427442     -0.697164
  H       3.668859      0.269853      0.213790
  H       4.788904     -0.024378     -0.786925
8
Coordinates from ORCA-job orca Relaxed Surface Scan Step 2 E -576.525154058209
  C       0.701384      0.092625      0.008511
  Cl      1.576518     -0.078662      1.574310
  H       1.442610      0.181877     -0.778231
  H       0.086015      0.983205      0.069479
  H       0.090084     -0.792643     -0.126680
  O       3.928781      0.425978     -0.694015
  H       3.650772      0.268753      0.216992
  H       4.772925     -0.025152     -0.782686
8
Coordinates from ORCA-job orca Relaxed Surface Scan Step 3 E -576.521409411486
  C       0.694732      0.097037     -0.028501
  Cl      1.601500     -0.084527      1.635662
  H       1.470450      0.183044     -0.778962
  H       0.091437      0.991084      0.060772
  H       0.097022     -0.798659     -0.137253
  O       3.906562      0.424303     -0.694359
  H       3.636353      0.268598      0.219510
  H       4.751033     -0.024900     -0.789188
8
Coordinates from ORCA-job orca Relaxed Surface Scan Step 4 E -576.513578004090
  C       0.686697      0.101725     -0.067595
  Cl      1.647106     -0.088798      1.682955
  H       1.483416      0.185649     -0.794728
  H       0.096852      0.998758      0.057039
  H       0.103543     -0.805186     -0.142533
  O       3.885272      0.422386     -0.688845
  H       3.615971      0.267057      0.225982
  H       4.730232     -0.025612     -0.784594
8
Coordinates from ORCA-job orca Relaxed Surface Scan Step 5 E -576.503504015014
  C       0.684232      0.106043     -0.105807
  Cl      1.676259     -0.093769      1.743064
  H       1.511996      0.185889     -0.796261
  H       0.105265      1.004974      0.045521
  H       0.112658     -0.808931     -0.153982
  O       3.854899      0.419722     -0.684796
  H       3.603883      0.266512      0.236058
  H       4.699898     -0.024461     -0.796117
8
Coordinates from ORCA-job orca Relaxed Surface Scan Step 6 E -576.492326220190
  C       0.678986      0.110623     -0.144370
  Cl      1.726918     -0.097816      1.789743
  H       1.522557      0.188671     -0.815225
  H       0.112726      1.010682      0.040243
  H       0.120892     -0.813017     -0.159985
  O       3.830512      0.417554     -0.677421
  H       3.580475      0.264497      0.244623
  H       4.676023     -0.025215     -0.789929
8
Coordinates from ORCA-job orca Relaxed Surface Scan Step 7 E -576.480789270244
  C       0.674676      0.114469     -0.180682
  Cl      1.764397     -0.102615      1.846284
  H       1.542295      0.188088     -0.821013
  H       0.119499      1.016006      0.027308
  H       0.126679     -0.814958     -0.171663
  O       3.802285      0.414770     -0.670559
  H       3.571460      0.263682      0.257328
  H       4.647800     -0.023461     -0.799322
8
Coordinates from ORCA-job orca Relaxed Surface Scan Step 8 E -576.469338413981
  C       0.669144      0.118323     -0.216158
  Cl      1.814585     -0.106836      1.896201
  H       1.549915      0.189729     -0.839521
  H       0.125421      1.020364      0.017893
  H       0.132014     -0.816695     -0.180587
  O       3.778778      0.412667     -0.661815
  H       3.554787      0.261738      0.268492
  H       4.624446     -0.023311     -0.796825
8
Coordinates from ORCA-job orca Relaxed Surface Scan Step 9 E -576.458232582994
  C       0.664577      0.122011     -0.248992
  Cl      1.861338     -0.111363      1.951112
  H       1.560842      0.190797     -0.851100
  H       0.129764      1.024227      0.004702
  H       0.136373     -0.817227     -0.192970
  O       3.754920      0.410286     -0.655083
  H       3.540226      0.259387      0.278142
  H       4.601050     -0.022138     -0.798131
8
Coordinates from ORCA-job orca Relaxed Surface Scan Step 10 E -576.447629985271
  C       0.660166      0.125428     -0.280841
  Cl      1.912078     -0.115963      2.004930
  H       1.569172      0.191596     -0.865173
  H       0.133842      1.027776     -0.009379
  H       0.139519     -0.817005     -0.206064
  O       3.730812      0.407586     -0.646954
  H       3.526100      0.257587      0.289436
  H       4.577401     -0.021024     -0.798276
8
Coordinates from ORCA-job orca Relaxed Surface Scan Step 11 E -576.437616192536
  C       0.655540      0.128619     -0.311166
  Cl      1.966178     -0.120658      2.058287
  H       1.575279      0.192087     -0.880299
  H       0.136863      1.031179     -0.024818
  H       0.140969     -0.816085     -0.220190
  O       3.707444      0.404813     -0.638201
  H       3.512127      0.255702      0.301159
  H       4.554689     -0.019677     -0.797091
8
Coordinates from ORCA-job orca Relaxed Surface Scan Step 12 E -576.428214320908
  C       0.650583      0.131582     -0.340111
  Cl      2.023961     -0.125278      2.110759
  H       1.579279      0.192282     -0.896440
  H       0.138770      1.034523     -0.041535
  H       0.140627     -0.814611     -0.235483
  O       3.684655      0.401858     -0.628582
  H       3.498424      0.253694      0.313615
  H       4.532790     -0.018070     -0.794544
8
Coordinates from ORCA-job orca Relaxed Surface Scan Step 13 E -576.419438120817
  C       0.644540      0.134201     -0.368723
  Cl      2.085262     -0.129932      2.160888
  H       1.579939      0.191523     -0.916422
  H       0.140984      1.038226     -0.058239
  H       0.138497     -0.812857     -0.250137
  O       3.662137      0.398719     -0.617308
  H       3.486221      0.251859      0.328165
  H       4.511509     -0.015760     -0.790545
8
Coordinates from ORCA-job orca Relaxed Surface Scan Step 14 E -576.411285630241
  C       0.640535      0.137088     -0.394604
  Cl      2.150760     -0.133160      2.212465
  H       1.585441      0.193065     -0.927558
  H       0.139622      1.041031     -0.078615
  H       0.137298     -0.811174     -0.270971
  O       3.638222      0.395503     -0.607047
  H       3.469362      0.248993      0.340939
  H       4.487849     -0.015366     -0.786929
8
Coordinates from ORCA-job orca Relaxed Surface Scan Step 15 E -576.403716969342
  C       0.633797      0.139858     -0.420299
  Cl      2.216384     -0.136643      2.262352
  H       1.588480      0.194198     -0.937448
  H       0.135154      1.043913     -0.099733
  H       0.132982     -0.809417     -0.291433
  O       3.617832      0.392762     -0.596533
  H       3.456831      0.246280      0.353597
  H       4.467631     -0.014971     -0.782824
8
Coordinates from ORCA-job orca Relaxed Surface Scan Step 16 E -576.404395594481
  C       0.560131      0.138356     -0.428100
  Cl      2.219874     -0.149339      2.326521
  H       1.500209      0.186544     -0.960619
  H       0.070176      1.045690     -0.109408
  H       0.056044     -0.806791     -0.296188
  O       3.718312      0.396031     -0.605997
  H       3.550228      0.252707      0.337118
  H       4.574117     -0.007219     -0.775646
8
Coordinates from ORCA-job orca Relaxed Surface Scan Step 17 E -576.400283353184
  C       0.539293      0.140040     -0.446694
  Cl      2.271724     -0.153935      2.382844
  H       1.486381      0.187243     -0.965797
  H       0.047967      1.047528     -0.130973
  H       0.034280     -0.805010     -0.318617
  O       3.725559      0.395079     -0.600606
  H       3.562914      0.251919      0.342723
  H       4.580973     -0.006884     -0.775200
8
Coordinates from ORCA-job orca Relaxed Surface Scan Step 18 E -576.396751024480
  C       0.516828      0.141669     -0.467011
  Cl      2.320444     -0.157194      2.438334
  H       1.473604      0.186683     -0.967491
  H       0.024818      1.049762     -0.154577
  H       0.010325     -0.802981     -0.343020
  O       3.727231      0.388654     -0.591197
  H       3.591526      0.250939      0.356584
  H       4.584315     -0.001553     -0.783941
8
Coordinates from ORCA-job orca Relaxed Surface Scan Step 19 E -576.393741630805
  C       0.493259      0.143162     -0.484462
  Cl      2.373611     -0.161756      2.492921
  H       1.455705      0.187354     -0.973150
  H      -0.000916      1.051425     -0.176430
  H      -0.015066     -0.801056     -0.365817
  O       3.739549      0.388221     -0.585968
  H       3.606620      0.250188      0.361505
  H       4.596328     -0.001559     -0.780919
8
Coordinates from ORCA-job orca Relaxed Surface Scan Step 20 E -576.391202555187
  C       0.466966      0.144744     -0.502274
  Cl      2.424716     -0.167016      2.546403
  H       1.435689      0.187453     -0.978181
  H      -0.028607      1.053700     -0.199001
  H      -0.042142     -0.799354     -0.387034
  O       3.754312      0.387573     -0.580786
  H       3.626978      0.249692      0.366912
  H       4.611178     -0.000813     -0.778359
8
Coordinates from ORCA-job orca Relaxed Surface Scan Step 21 E -576.389091024593
  C       0.440601      0.146276     -0.519852
  Cl      2.475832     -0.170766      2.599990
  H       1.417230      0.188532     -0.978897
  H      -0.058127      1.055134     -0.221898
  H      -0.069922     -0.797806     -0.411906
  O       3.768511      0.385952     -0.574717
  H       3.650191      0.249142      0.373715
  H       4.624774     -0.000485     -0.778757
8
Coordinates from ORCA-job orca Relaxed Surface Scan Step 22 E -576.387371555604
  C       0.415286      0.148197     -0.537249
  Cl      2.528764     -0.170467      2.653397
  H       1.410038      0.192195     -0.954242
  H      -0.094426      1.055283     -0.253222
  H      -0.097691     -0.796658     -0.451072
  O       3.773369      0.378914     -0.564321
  H       3.686795      0.248066      0.387863
  H       4.626954      0.000450     -0.793475
8
Coordinates from ORCA-job orca Relaxed Surface Scan Step 23 E -576.385986105870
  C       0.390429      0.149681     -0.554543
  Cl      2.583752     -0.173973      2.705269
  H       1.390588      0.193501     -0.958403
  H      -0.121980      1.056578     -0.275194
  H      -0.123899     -0.794972     -0.475653
  O       3.786868      0.378223     -0.557934
  H       3.703690      0.247201      0.394083
  H       4.639643     -0.000259     -0.789945
8
Coordinates from ORCA-job orca Relaxed Surface Scan Step 24 E -576.384891561133
  C       0.365413      0.151296     -0.572195
  Cl      2.640297     -0.176331      2.755472
  H       1.373101      0.195574     -0.956836
  H      -0.151029      1.057573     -0.298495
  H      -0.149882     -0.793600     -0.503622
  O       3.798797      0.376909     -0.550377
  H       3.722457      0.246251      0.401882
  H       4.649935     -0.001692     -0.788149
8
Coordinates from ORCA-job orca Relaxed Surface Scan Step 25 E -576.384055197134
  C       0.339926      0.153698     -0.589653
  Cl      2.702551     -0.173827      2.801706
  H       1.370316      0.201462     -0.906942
  H      -0.193863      1.056958     -0.340565
  H      -0.175714     -0.792822     -0.555533
  O       3.799758      0.371030     -0.534678
  H       3.764856      0.245450      0.420413
  H       4.641261     -0.005969     -0.807068
8
Coordinates from ORCA-job orca Relaxed Surface Scan Step 26 E -576.383408770334
  C       0.320595      0.155360     -0.607656
  Cl      2.767307     -0.176474      2.849169
  H       1.355522      0.202684     -0.909467
  H      -0.216150      1.058644     -0.365246
  H      -0.196216     -0.790765     -0.582372
  O       3.802830      0.369849     -0.524957
  H       3.772296      0.243770      0.429990
  H       4.642906     -0.007088     -0.801782
8
Coordinates from ORCA-job orca Relaxed Surface Scan Step 27 E -576.382912527528
  C       0.302155      0.157129     -0.626131
  Cl      2.835198     -0.178533      2.894312
  H       1.342171      0.204114     -0.909667
  H      -0.237861      1.060349     -0.390998
  H      -0.215504     -0.788715     -0.610822
  O       3.803206      0.368366     -0.513913
  H       3.778222      0.241839      0.440958
  H       4.641503     -0.008569     -0.796060
8
Coordinates from ORCA-job orca Relaxed Surface Scan Step 28 E -576.382535200551
  C       0.285187      0.159004     -0.644968
  Cl      2.906050     -0.179765      2.937758
  H       1.330595      0.205934     -0.907565
  H      -0.258577      1.061864     -0.417332
  H      -0.233030     -0.786622     -0.641416
  O       3.800367      0.366474     -0.501664
  H       3.782110      0.239640      0.453176
  H       4.636388     -0.010548     -0.790309
8
Coordinates from ORCA-job orca Relaxed Surface Scan Step 29 E -576.382247679102
  C       0.271062      0.160934     -0.663815
  Cl      2.980824     -0.181038      2.980052
  H       1.321032      0.207790     -0.907027
  H      -0.276086      1.063545     -0.443481
  H      -0.247677     -0.784364     -0.672012
  O       3.792497      0.364767     -0.489949
  H       3.779882      0.237257      0.464974
  H       4.627556     -0.012911     -0.781062
8
Coordinates from ORCA-job orca Relaxed Surface Scan Step 30 E -576.382027948627
  C       0.256439      0.162874     -0.683017
  Cl      3.057536     -0.181600      3.019871
  H       1.310732      0.209619     -0.905910
  H      -0.294034      1.065182     -0.469921
  H      -0.262685     -0.782008     -0.703683
  O       3.784932      0.362596     -0.476396
  H       3.777665      0.234522      0.478484
  H       4.618506     -0.015206     -0.771749
8
Coordinates from ORCA-job orca Relaxed Surface Scan Step 31 E -576.381858004242
  C       0.242483      0.164853     -0.702248
  Cl      3.134820     -0.182126      3.059351
  H       1.300904      0.211378     -0.904361
  H      -0.311277      1.066891     -0.496702
  H      -0.276767     -0.779595     -0.735407
  O       3.776272      0.360310     -0.462537
  H       3.774474      0.231687      0.492256
  H       4.608181     -0.017419     -0.762671
8
Coordinates from ORCA-job orca Relaxed Surface Scan Step 32 E -576.381728699751
  C       0.228502      0.166968     -0.722449
  Cl      3.215420     -0.180786      3.095043
  H       1.291761      0.213652     -0.898829
  H      -0.329256      1.068128     -0.524028
  H      -0.290308     -0.777048     -0.771138
  O       3.766395      0.356956     -0.445096
  H       3.771949      0.228327      0.509430
  H       4.594629     -0.020216     -0.755253
8
Coordinates from ORCA-job orca Relaxed Surface Scan Step 33 E -576.381625225961
  C       0.215038      0.169007     -0.741980
  Cl      3.296185     -0.180972      3.131121
  H       1.281551      0.215443     -0.896871
  H      -0.345861      1.069900     -0.551371
  H      -0.303251     -0.774524     -0.803816
  O       3.755530      0.354783     -0.430390
  H       3.767251      0.225463      0.524127
  H       4.582646     -0.023120     -0.743141
8
Coordinates from ORCA-job orca Relaxed Surface Scan Step 34 E -576.381574625636
  C       0.189307      0.172473     -0.765506
  Cl      3.368980     -0.154354      3.161517
  H       1.266432      0.229507     -0.789508
  H      -0.398088      1.057271     -0.579450
  H      -0.309436     -0.769629     -0.927902
  O       3.748808      0.348381     -0.388843
  H       3.857846      0.231321      0.560864
  H       4.525241     -0.058991     -0.783493
8
Coordinates from ORCA-job orca Relaxed Surface Scan Step 35 E -576.381512359936
  C       0.177384      0.173916     -0.784642
  Cl      3.455168     -0.155873      3.193871
  H       1.254571      0.229926     -0.799971
  H      -0.410721      1.059983     -0.607019
  H      -0.321234     -0.766982     -0.954250
  O       3.736224      0.346837     -0.371313
  H       3.845491      0.228324      0.578150
  H       4.512206     -0.060151     -0.767146
8
Coordinates from ORCA-job orca Relaxed Surface Scan Step 36 E -576.381459119540
  C       0.166223      0.175618     -0.804614
  Cl      3.541391     -0.157331      3.225512
  H       1.243565      0.230533     -0.810659
  H      -0.422499      1.062601     -0.633765
  H      -0.331854     -0.764531     -0.979868
  O       3.722216      0.345253     -0.353885
  H       3.832017      0.225262      0.595338
  H       4.498032     -0.061426     -0.750379
8
Coordinates from ORCA-job orca Relaxed Surface Scan Step 37 E -576.381419931668
  C       0.154156      0.177492     -0.826110
  Cl      3.632505     -0.157266      3.250367
  H       1.231522      0.231291     -0.821132
  H      -0.435220      1.064960     -0.660137
  H      -0.343237     -0.761744     -1.008053
  O       3.708000      0.343018     -0.333321
  H       3.817276      0.221520      0.615764
  H       4.484087     -0.063290     -0.729698
8
Coordinates from ORCA-job orca Relaxed Surface Scan Step 38 E -576.381386510810
  C       0.143266      0.179437     -0.847192
  Cl      3.721543     -0.157430      3.277851
  H       1.220601      0.232143     -0.831638
  H      -0.446874      1.067191     -0.685533
  H      -0.353233     -0.759047     -1.035363
  O       3.692825      0.340819     -0.314299
  H       3.801861      0.217907      0.634633
  H       4.469102     -0.065040     -0.710780
8
Coordinates from ORCA-job orca Relaxed Surface Scan Step 39 E -576.381357965354
  C       0.131435      0.181464     -0.869283
  Cl      3.814617     -0.156657      3.299533
  H       1.208561      0.232970     -0.841931
  H      -0.459428      1.069469     -0.711737
  H      -0.364062     -0.756118     -1.064437
  O       3.677708      0.338173     -0.292336
  H       3.785832      0.213706      0.656473
  H       4.454429     -0.067027     -0.688601
8
Coordinates from ORCA-job orca Relaxed Surface Scan Step 40 E -576.381336333500
  C       0.120336      0.183586     -0.891816
  Cl      3.910411     -0.155442      3.318412
  H       1.197118      0.233783     -0.852045
  H      -0.471274      1.071821     -0.738428
  H      -0.374049     -0.753065     -1.094091
  O       3.660761      0.335195     -0.269079
  H       3.767529      0.209036      0.679634
  H       4.438259     -0.068934     -0.664907
8
Coordinates from ORCA-job orca Relaxed Surface Scan Step 41 E -576.381315719817
  C       0.109724      0.185279     -0.913806
  Cl      4.008907     -0.163824      3.334411
  H       1.186003      0.233498     -0.861543
  H      -0.481583      1.076064     -0.774767
  H      -0.384160     -0.752111     -1.113820
  O       3.643372      0.334780     -0.249840
  H       3.742539      0.216831      0.700842
  H       4.424288     -0.074536     -0.633796
8
Coordinates from ORCA-job orca Relaxed Surface Scan Step 42 E -576.381294777763
  C       0.100288      0.187154     -0.936838
  Cl      4.113687     -0.170463      3.344000
  H       1.175889      0.233223     -0.870847
  H      -0.490721      1.080283     -0.812274
  H      -0.393313     -0.750643     -1.135686
  O       3.623205      0.333713     -0.226500
  H       3.713028      0.222243      0.725837
  H       4.407028     -0.079529     -0.600012
8
Coordinates from ORCA-job orca Relaxed Surface Scan Step 43 E -576.381275375276
  C       0.088677      0.189692     -0.959255
  Cl      4.212610     -0.166102      3.357709
  H       1.163474      0.234563     -0.879652
  H      -0.503078      1.082623     -0.836871
  H      -0.403000     -0.746718     -1.169038
  O       3.606861      0.330039     -0.203316
  H       3.689190      0.213589      0.749160
  H       4.394356     -0.081707     -0.571057
8
Coordinates from ORCA-job orca Relaxed Surface Scan Step 44 E -576.381251765523
  C       0.074033      0.191496     -0.982301
  Cl      4.306174     -0.169038      3.371794
  H       1.147954      0.234364     -0.890257
  H      -0.517314      1.085843     -0.868695
  H      -0.417288     -0.744522     -1.194588
  O       3.595060      0.327111     -0.177953
  H       3.677989      0.215582      0.774928
  H       4.382482     -0.084857     -0.545249
8
Coordinates from ORCA-job orca Relaxed Surface Scan Step 45 E -576.381226667605
  C       0.060397      0.193385     -1.005814
  Cl      4.403001     -0.171275      3.382612
  H       1.133181      0.234252     -0.900581
  H      -0.530430      1.089123     -0.900870
  H      -0.430226     -0.742203     -1.221534
  O       3.580303      0.323911     -0.150907
  H       3.665027      0.217159      0.802300
  H       4.367838     -0.088373     -0.517526
8
Coordinates from ORCA-job orca Relaxed Surface Scan Step 46 E -576.381199684923
  C       0.047022      0.195346     -1.029683
  Cl      4.501508     -0.172713      3.391025
  H       1.118458      0.234194     -0.910787
  H      -0.543249      1.092371     -0.933043
  H      -0.442741     -0.739675     -1.249716
  O       3.564458      0.320359     -0.122403
  H       3.651570      0.218105      0.831033
  H       4.352065     -0.092006     -0.488746
8
Coordinates from ORCA-job orca Relaxed Surface Scan Step 47 E -576.381183482950
  C       0.049443      0.197958     -1.059522
  Cl      4.643694     -0.170593      3.364218
  H       1.118173      0.233860     -0.917619
  H      -0.540183      1.096854     -0.977028
  H      -0.438604     -0.735976     -1.287975
  O       3.511124      0.314498     -0.072180
  H       3.609210      0.218293      0.880891
  H       4.296234     -0.098915     -0.443106
8
Coordinates from ORCA-job orca Relaxed Surface Scan Step 48 E -576.381152553846
  C       0.031144      0.200020     -1.082831
  Cl      4.732566     -0.169924      3.376415
  H       1.098197      0.233942     -0.928350
  H      -0.557807      1.099796     -1.005607
  H      -0.455670     -0.732985     -1.317500
  O       3.504691      0.310216     -0.045214
  H       3.605649      0.216321      0.907735
  H       4.290319     -0.101406     -0.416968
8
Coordinates from ORCA-job orca Relaxed Surface Scan Step 49 E -576.381116487902
  C       0.014285      0.202229     -1.106592
  Cl      4.824932     -0.168139      3.385515
  H       1.079426      0.234170     -0.938929
  H      -0.574125      1.102732     -1.034146
  H      -0.470998     -0.729686     -1.348550
  O       3.495194      0.305411     -0.016339
  H       3.599317      0.213523      0.936398
  H       4.281059     -0.104260     -0.389676
8
Coordinates from ORCA-job orca Relaxed Surface Scan Step 50 E -576.381076095463
  C      -0.001630      0.204611     -1.130812
  Cl      4.920204     -0.165070      3.391533
  H       1.061324      0.234563     -0.949359
  H      -0.589684      1.105654     -1.062569
  H      -0.484992     -0.726015     -1.381338
  O       3.483436      0.300030      0.014448
  H       3.591089      0.209684      0.966873
  H       4.269343     -0.107476     -0.361096
8
Coordinates from ORCA-job orca Relaxed Surface Scan Step 51 E -576.381055112004
  C       0.006073      0.209290     -1.167745
  Cl      5.095282     -0.147028      3.322321
  H       1.062296      0.235642     -0.950878
  H      -0.583331      1.110028     -1.107021
  H      -0.469758     -0.717204     -1.446544
  O       3.410797      0.285842      0.090925
  H       3.535212      0.199783      1.041679
  H       4.192519     -0.120372     -0.295056
8
Coordinates from ORCA-job orca Relaxed Surface Scan Step 52 E -576.381010806289
  C      -0.014417      0.212065     -1.190993
  Cl      5.178494     -0.140766      3.335888
  H       1.039510      0.236510     -0.962348
  H      -0.603996      1.112637     -1.130173
  H      -0.487424     -0.712666     -1.480124
  O       3.408757      0.279331      0.118510
  H       3.537812      0.191901      1.068502
  H       4.190355     -0.123032     -0.271582
8
Coordinates from ORCA-job orca Relaxed Surface Scan Step 53 E -576.380956485894
  C      -0.034275      0.215016     -1.214895
  Cl      5.264853     -0.133367      3.345574
  H       1.016939      0.237577     -0.973775
  H      -0.624342      1.115209     -1.153749
  H      -0.503926     -0.707689     -1.515620
  O       3.404931      0.272294      0.148575
  H       3.538847      0.183333      1.097704
  H       4.186064     -0.126393     -0.246133
