LAMMPS data file via polygen.toy.py, on [timestamp]

9600 atoms
6 atom types
10750 bonds
6 bond types
16600 angles
9 angle types

-265.7529738914109 265.7529738914109 xlo xhi
-265.7529738914109 265.7529738914109 ylo yhi
-265.7529738914109 265.7529738914109 zlo zhi

Masses

1 30.00614
2 30.06964
3 26.03788
4 29.01834
5 28.0104
6 42.08064

Atoms

1     0     6     0.000000   -59.954949           108.997430           53.424132           
2     0     6     0.000000   -59.954949           113.297430           53.424132           
3     0     6     0.000000   -59.954949           117.597430           53.424132           
4     0     6     0.000000   -59.954949           121.897430           53.424132           
5     0     6     0.000000   -59.954949           126.197430           53.424132           
6     0     6     0.000000   -59.954949           130.497430           53.424132           
7     0     6     0.000000   -59.954949           134.797430           53.424132           
8     0     6     0.000000   -59.954949           139.097430           53.424132           
9     0     6     0.000000   -59.954949           143.397430           53.424132           
10    0     6     0.000000   -59.954949           147.697430           53.424132           
11    0     6     0.000000   -59.954949           151.997430           53.424132           
12    0     6     0.000000   -59.954949           156.297430           53.424132           
13    0     6     0.000000   -59.954949           160.597430           53.424132           
14    0     6     0.000000   -59.954949           164.897430           53.424132           
15    0     6     0.000000   -59.954949           169.197430           53.424132           
16    0     6     0.000000   -59.954949           173.497430           53.424132           
17    0     6     0.000000   -59.954949           177.797430           53.424132           
18    0     6     0.000000   -59.954949           182.097430           53.424132           
19    0     6     0.000000   -59.954949           186.397430           53.424132           
20    0     6     0.000000   -59.954949           190.697430           53.424132           
21    0     6     0.000000   -59.954949           194.997430           53.424132           
22    0     6     0.000000   -59.954949           199.297430           53.424132           
23    0     6     0.000000   -59.954949           203.597430           53.424132           
24    0     6     0.000000   -59.954949           207.897430           53.424132           
25    0     1     0.000000   -50.144391           110.237733           52.098848           
26    0     2     0.000000   -51.001695           112.408951           52.302109           
27    0     2     0.000000   -50.423951           108.487057           53.601623           
28    0     3     0.000000   -52.005953           111.571975           53.235059           
29    0     3     0.000000   -51.944354           108.997430           53.424132           
30    0     4     0.000000   -54.074518           110.316266           53.694727           
31    0     5     0.000000   -55.654949           108.997430           53.424132           
32    0     1     0.000000   -50.144391           114.537733           52.098848           
33    0     2     0.000000   -51.001695           116.708951           52.302109           
34    0     2     0.000000   -50.423951           112.787057           53.601623           
35    0     3     0.000000   -52.005953           115.871975           53.235059           
36    0     3     0.000000   -51.944354           113.297430           53.424132           
37    0     4     0.000000   -54.074518           114.616266           53.694727           
38    0     5     0.000000   -55.654949           113.297430           53.424132           
39    0     1     0.000000   -50.144391           118.837733           52.098848           
40    0     2     0.000000   -51.001695           121.008951           52.302109           
41    0     2     0.000000   -50.423951           117.087057           53.601623           
42    0     3     0.000000   -52.005953           120.171975           53.235059           
43    0     3     0.000000   -51.944354           117.597430           53.424132           
44    0     4     0.000000   -54.074518           118.916266           53.694727           
45    0     5     0.000000   -55.654949           117.597430           53.424132           
46    0     1     0.000000   -50.144391           123.137733           52.098848           
47    0     2     0.000000   -51.001695           125.308951           52.302109           
48    0     2     0.000000   -50.423951           121.387057           53.601623           
49    0     3     0.000000   -52.005953           124.471975           53.235059           
50    0     3     0.000000   -51.944354           121.897430           53.424132           
51    0     4     0.000000   -54.074518           123.216266           53.694727           
52    0     5     0.000000   -55.654949           121.897430           53.424132           
53    0     1     0.000000   -50.144391           127.437733           52.098848           
54    0     2     0.000000   -51.001695           129.608951           52.302109           
55    0     2     0.000000   -50.423951           125.687057           53.601623           
56    0     3     0.000000   -52.005953           128.771975           53.235059           
57    0     3     0.000000   -51.944354           126.197430           53.424132           
58    0     4     0.000000   -54.074518           127.516266           53.694727           
59    0     5     0.000000   -55.654949           126.197430           53.424132           
60    0     1     0.000000   -50.144391           131.737733           52.098848           
61    0     2     0.000000   -51.001695           133.908951           52.302109           
62    0     2     0.000000   -50.423951           129.987057           53.601623           
63    0     3     0.000000   -52.005953           133.071975           53.235059           
64    0     3     0.000000   -51.944354           130.497430           53.424132           
65    0     4     0.000000   -54.074518           131.816266           53.694727           
66    0     5     0.000000   -55.654949           130.497430           53.424132           
67    0     1     0.000000   -50.144391           136.037733           52.098848           
68    0     2     0.000000   -51.001695           138.208951           52.302109           
69    0     2     0.000000   -50.423951           134.287057           53.601623           
70    0     3     0.000000   -52.005953           137.371975           53.235059           
71    0     3     0.000000   -51.944354           134.797430           53.424132           
72    0     4     0.000000   -54.074518           136.116266           53.694727           
73    0     5     0.000000   -55.654949           134.797430           53.424132           
74    0     1     0.000000   -50.144391           140.337733           52.098848           
75    0     2     0.000000   -51.001695           142.508951           52.302109           
76    0     2     0.000000   -50.423951           138.587057           53.601623           
77    0     3     0.000000   -52.005953           141.671975           53.235059           
78    0     3     0.000000   -51.944354           139.097430           53.424132           
79    0     4     0.000000   -54.074518           140.416266           53.694727           
80    0     5     0.000000   -55.654949           139.097430           53.424132           
81    0     1     0.000000   -50.144391           144.637733           52.098848           
82    0     2     0.000000   -51.001695           146.808951           52.302109           
83    0     2     0.000000   -50.423951           142.887057           53.601623           
84    0     3     0.000000   -52.005953           145.971975           53.235059           
85    0     3     0.000000   -51.944354           143.397430           53.424132           
86    0     4     0.000000   -54.074518           144.716266           53.694727           
87    0     5     0.000000   -55.654949           143.397430           53.424132           
88    0     1     0.000000   -50.144391           148.937733           52.098848           
89    0     2     0.000000   -51.001695           151.108951           52.302109           
90    0     2     0.000000   -50.423951           147.187057           53.601623           
91    0     3     0.000000   -52.005953           150.271975           53.235059           
92    0     3     0.000000   -51.944354           147.697430           53.424132           
93    0     4     0.000000   -54.074518           149.016266           53.694727           
94    0     5     0.000000   -55.654949           147.697430           53.424132           
95    0     1     0.000000   -50.144391           153.237733           52.098848           
96    0     2     0.000000   -51.001695           155.408951           52.302109           
97    0     2     0.000000   -50.423951           151.487057           53.601623           
98    0     3     0.000000   -52.005953           154.571975           53.235059           
99    0     3     0.000000   -51.944354           151.997430           53.424132           
100   0     4     0.000000   -54.074518           153.316266           53.694727           
101   0     5     0.000000   -55.654949           151.997430           53.424132           
102   0     1     0.000000   -50.144391           157.537733           52.098848           
103   0     2     0.000000   -51.001695           159.708951           52.302109           
104   0     2     0.000000   -50.423951           155.787057           53.601623           
105   0     3     0.000000   -52.005953           158.871975           53.235059           
106   0     3     0.000000   -51.944354           156.297430           53.424132           
107   0     4     0.000000   -54.074518           157.616266           53.694727           
108   0     5     0.000000   -55.654949           156.297430           53.424132           
109   0     1     0.000000   -50.144391           161.837733           52.098848           
110   0     2     0.000000   -51.001695           164.008951           52.302109           
111   0     2     0.000000   -50.423951           160.087057           53.601623           
112   0     3     0.000000   -52.005953           163.171975           53.235059           
113   0     3     0.000000   -51.944354           160.597430           53.424132           
114   0     4     0.000000   -54.074518           161.916266           53.694727           
115   0     5     0.000000   -55.654949           160.597430           53.424132           
116   0     1     0.000000   -50.144391           166.137733           52.098848           
117   0     2     0.000000   -51.001695           168.308951           52.302109           
118   0     2     0.000000   -50.423951           164.387057           53.601623           
119   0     3     0.000000   -52.005953           167.471975           53.235059           
120   0     3     0.000000   -51.944354           164.897430           53.424132           
121   0     4     0.000000   -54.074518           166.216266           53.694727           
122   0     5     0.000000   -55.654949           164.897430           53.424132           
123   0     1     0.000000   -50.144391           170.437733           52.098848           
124   0     2     0.000000   -51.001695           172.608951           52.302109           
125   0     2     0.000000   -50.423951           168.687057           53.601623           
126   0     3     0.000000   -52.005953           171.771975           53.235059           
127   0     3     0.000000   -51.944354           169.197430           53.424132           
128   0     4     0.000000   -54.074518           170.516266           53.694727           
129   0     5     0.000000   -55.654949           169.197430           53.424132           
130   0     1     0.000000   -50.144391           174.737733           52.098848           
131   0     2     0.000000   -51.001695           176.908951           52.302109           
132   0     2     0.000000   -50.423951           172.987057           53.601623           
133   0     3     0.000000   -52.005953           176.071975           53.235059           
134   0     3     0.000000   -51.944354           173.497430           53.424132           
135   0     4     0.000000   -54.074518           174.816266           53.694727           
136   0     5     0.000000   -55.654949           173.497430           53.424132           
137   0     1     0.000000   -50.144391           179.037733           52.098848           
138   0     2     0.000000   -51.001695           181.208951           52.302109           
139   0     2     0.000000   -50.423951           177.287057           53.601623           
140   0     3     0.000000   -52.005953           180.371975           53.235059           
141   0     3     0.000000   -51.944354           177.797430           53.424132           
142   0     4     0.000000   -54.074518           179.116266           53.694727           
143   0     5     0.000000   -55.654949           177.797430           53.424132           
144   0     1     0.000000   -50.144391           183.337733           52.098848           
145   0     2     0.000000   -51.001695           185.508951           52.302109           
146   0     2     0.000000   -50.423951           181.587057           53.601623           
147   0     3     0.000000   -52.005953           184.671975           53.235059           
148   0     3     0.000000   -51.944354           182.097430           53.424132           
149   0     4     0.000000   -54.074518           183.416266           53.694727           
150   0     5     0.000000   -55.654949           182.097430           53.424132           
151   0     1     0.000000   -50.144391           187.637733           52.098848           
152   0     2     0.000000   -51.001695           189.808951           52.302109           
153   0     2     0.000000   -50.423951           185.887057           53.601623           
154   0     3     0.000000   -52.005953           188.971975           53.235059           
155   0     3     0.000000   -51.944354           186.397430           53.424132           
156   0     4     0.000000   -54.074518           187.716266           53.694727           
157   0     5     0.000000   -55.654949           186.397430           53.424132           
158   0     1     0.000000   -50.144391           191.937733           52.098848           
159   0     2     0.000000   -51.001695           194.108951           52.302109           
160   0     2     0.000000   -50.423951           190.187057           53.601623           
161   0     3     0.000000   -52.005953           193.271975           53.235059           
162   0     3     0.000000   -51.944354           190.697430           53.424132           
163   0     4     0.000000   -54.074518           192.016266           53.694727           
164   0     5     0.000000   -55.654949           190.697430           53.424132           
165   0     1     0.000000   -50.144391           196.237733           52.098848           
166   0     2     0.000000   -51.001695           198.408951           52.302109           
167   0     2     0.000000   -50.423951           194.487057           53.601623           
168   0     3     0.000000   -52.005953           197.571975           53.235059           
169   0     3     0.000000   -51.944354           194.997430           53.424132           
170   0     4     0.000000   -54.074518           196.316266           53.694727           
171   0     5     0.000000   -55.654949           194.997430           53.424132           
172   0     1     0.000000   -50.144391           200.537733           52.098848           
173   0     2     0.000000   -51.001695           202.708951           52.302109           
174   0     2     0.000000   -50.423951           198.787057           53.601623           
175   0     3     0.000000   -52.005953           201.871975           53.235059           
176   0     3     0.000000   -51.944354           199.297430           53.424132           
177   0     4     0.000000   -54.074518           200.616266           53.694727           
178   0     5     0.000000   -55.654949           199.297430           53.424132           
179   0     1     0.000000   -50.144391           204.837733           52.098848           
180   0     2     0.000000   -51.001695           207.008951           52.302109           
181   0     2     0.000000   -50.423951           203.087057           53.601623           
182   0     3     0.000000   -52.005953           206.171975           53.235059           
183   0     3     0.000000   -51.944354           203.597430           53.424132           
184   0     4     0.000000   -54.074518           204.916266           53.694727           
185   0     5     0.000000   -55.654949           203.597430           53.424132           
186   0     1     0.000000   -50.144391           209.137733           52.098848           
187   0     2     0.000000   -51.001695           211.308951           52.302109           
188   0     2     0.000000   -50.423951           207.387057           53.601623           
189   0     3     0.000000   -52.005953           210.471975           53.235059           
190   0     3     0.000000   -51.944354           207.897430           53.424132           
191   0     4     0.000000   -54.074518           209.216266           53.694727           
192   0     5     0.000000   -55.654949           207.897430           53.424132           
193   1     6     0.000000   -59.954949           2.696241             -52.877058          
194   1     6     0.000000   -59.954949           6.996241             -52.877058          
195   1     6     0.000000   -59.954949           11.296241            -52.877058          
196   1     6     0.000000   -59.954949           15.596241            -52.877058          
197   1     6     0.000000   -59.954949           19.896241            -52.877058          
198   1     6     0.000000   -59.954949           24.196241            -52.877058          
199   1     6     0.000000   -59.954949           28.496241            -52.877058          
200   1     6     0.000000   -59.954949           32.796241            -52.877058          
201   1     6     0.000000   -59.954949           37.096241            -52.877058          
202   1     6     0.000000   -59.954949           41.396241            -52.877058          
203   1     6     0.000000   -59.954949           45.696241            -52.877058          
204   1     6     0.000000   -59.954949           49.996241            -52.877058          
205   1     6     0.000000   -59.954949           54.296241            -52.877058          
206   1     6     0.000000   -59.954949           58.596241            -52.877058          
207   1     6     0.000000   -59.954949           62.896241            -52.877058          
208   1     6     0.000000   -59.954949           67.196241            -52.877058          
209   1     6     0.000000   -59.954949           71.496241            -52.877058          
210   1     6     0.000000   -59.954949           75.796241            -52.877058          
211   1     6     0.000000   -59.954949           80.096241            -52.877058          
212   1     6     0.000000   -59.954949           84.396241            -52.877058          
213   1     6     0.000000   -59.954949           88.696241            -52.877058          
214   1     6     0.000000   -59.954949           92.996241            -52.877058          
215   1     6     0.000000   -59.954949           97.296241            -52.877058          
216   1     6     0.000000   -59.954949           101.596241           -52.877058          
217   1     1     0.000000   -50.144391           3.936544             -54.202342          
218   1     2     0.000000   -51.001695           6.107762             -53.999081          
219   1     2     0.000000   -50.423951           2.185868             -52.699567          
220   1     3     0.000000   -52.005953           5.270786             -53.066131          
221   1     3     0.000000   -51.944354           2.696241             -52.877058          
222   1     4     0.000000   -54.074518           4.015077             -52.606463          
223   1     5     0.000000   -55.654949           2.696241             -52.877058          
224   1     1     0.000000   -50.144391           8.236544             -54.202342          
225   1     2     0.000000   -51.001695           10.407762            -53.999081          
226   1     2     0.000000   -50.423951           6.485868             -52.699567          
227   1     3     0.000000   -52.005953           9.570786             -53.066131          
228   1     3     0.000000   -51.944354           6.996241             -52.877058          
229   1     4     0.000000   -54.074518           8.315077             -52.606463          
230   1     5     0.000000   -55.654949           6.996241             -52.877058          
231   1     1     0.000000   -50.144391           12.536544            -54.202342          
232   1     2     0.000000   -51.001695           14.707762            -53.999081          
233   1     2     0.000000   -50.423951           10.785868            -52.699567          
234   1     3     0.000000   -52.005953           13.870786            -53.066131          
235   1     3     0.000000   -51.944354           11.296241            -52.877058          
236   1     4     0.000000   -54.074518           12.615077            -52.606463          
237   1     5     0.000000   -55.654949           11.296241            -52.877058          
238   1     1     0.000000   -50.144391           16.836544            -54.202342          
239   1     2     0.000000   -51.001695           19.007762            -53.999081          
240   1     2     0.000000   -50.423951           15.085868            -52.699567          
241   1     3     0.000000   -52.005953           18.170786            -53.066131          
242   1     3     0.000000   -51.944354           15.596241            -52.877058          
243   1     4     0.000000   -54.074518           16.915077            -52.606463          
244   1     5     0.000000   -55.654949           15.596241            -52.877058          
245   1     1     0.000000   -50.144391           21.136544            -54.202342          
246   1     2     0.000000   -51.001695           23.307762            -53.999081          
247   1     2     0.000000   -50.423951           19.385868            -52.699567          
248   1     3     0.000000   -52.005953           22.470786            -53.066131          
249   1     3     0.000000   -51.944354           19.896241            -52.877058          
250   1     4     0.000000   -54.074518           21.215077            -52.606463          
251   1     5     0.000000   -55.654949           19.896241            -52.877058          
252   1     1     0.000000   -50.144391           25.436544            -54.202342          
253   1     2     0.000000   -51.001695           27.607762            -53.999081          
254   1     2     0.000000   -50.423951           23.685868            -52.699567          
255   1     3     0.000000   -52.005953           26.770786            -53.066131          
256   1     3     0.000000   -51.944354           24.196241            -52.877058          
257   1     4     0.000000   -54.074518           25.515077            -52.606463          
258   1     5     0.000000   -55.654949           24.196241            -52.877058          
259   1     1     0.000000   -50.144391           29.736544            -54.202342          
260   1     2     0.000000   -51.001695           31.907762            -53.999081          
261   1     2     0.000000   -50.423951           27.985868            -52.699567          
262   1     3     0.000000   -52.005953           31.070786            -53.066131          
263   1     3     0.000000   -51.944354           28.496241            -52.877058          
264   1     4     0.000000   -54.074518           29.815077            -52.606463          
265   1     5     0.000000   -55.654949           28.496241            -52.877058          
266   1     1     0.000000   -50.144391           34.036544            -54.202342          
267   1     2     0.000000   -51.001695           36.207762            -53.999081          
268   1     2     0.000000   -50.423951           32.285868            -52.699567          
269   1     3     0.000000   -52.005953           35.370786            -53.066131          
270   1     3     0.000000   -51.944354           32.796241            -52.877058          
271   1     4     0.000000   -54.074518           34.115077            -52.606463          
272   1     5     0.000000   -55.654949           32.796241            -52.877058          
273   1     1     0.000000   -50.144391           38.336544            -54.202342          
274   1     2     0.000000   -51.001695           40.507762            -53.999081          
275   1     2     0.000000   -50.423951           36.585868            -52.699567          
276   1     3     0.000000   -52.005953           39.670786            -53.066131          
277   1     3     0.000000   -51.944354           37.096241            -52.877058          
278   1     4     0.000000   -54.074518           38.415077            -52.606463          
279   1     5     0.000000   -55.654949           37.096241            -52.877058          
280   1     1     0.000000   -50.144391           42.636544            -54.202342          
281   1     2     0.000000   -51.001695           44.807762            -53.999081          
282   1     2     0.000000   -50.423951           40.885868            -52.699567          
283   1     3     0.000000   -52.005953           43.970786            -53.066131          
284   1     3     0.000000   -51.944354           41.396241            -52.877058          
285   1     4     0.000000   -54.074518           42.715077            -52.606463          
286   1     5     0.000000   -55.654949           41.396241            -52.877058          
287   1     1     0.000000   -50.144391           46.936544            -54.202342          
288   1     2     0.000000   -51.001695           49.107762            -53.999081          
289   1     2     0.000000   -50.423951           45.185868            -52.699567          
290   1     3     0.000000   -52.005953           48.270786            -53.066131          
291   1     3     0.000000   -51.944354           45.696241            -52.877058          
292   1     4     0.000000   -54.074518           47.015077            -52.606463          
293   1     5     0.000000   -55.654949           45.696241            -52.877058          
294   1     1     0.000000   -50.144391           51.236544            -54.202342          
295   1     2     0.000000   -51.001695           53.407762            -53.999081          
296   1     2     0.000000   -50.423951           49.485868            -52.699567          
297   1     3     0.000000   -52.005953           52.570786            -53.066131          
298   1     3     0.000000   -51.944354           49.996241            -52.877058          
299   1     4     0.000000   -54.074518           51.315077            -52.606463          
300   1     5     0.000000   -55.654949           49.996241            -52.877058          
301   1     1     0.000000   -50.144391           55.536544            -54.202342          
302   1     2     0.000000   -51.001695           57.707762            -53.999081          
303   1     2     0.000000   -50.423951           53.785868            -52.699567          
304   1     3     0.000000   -52.005953           56.870786            -53.066131          
305   1     3     0.000000   -51.944354           54.296241            -52.877058          
306   1     4     0.000000   -54.074518           55.615077            -52.606463          
307   1     5     0.000000   -55.654949           54.296241            -52.877058          
308   1     1     0.000000   -50.144391           59.836544            -54.202342          
309   1     2     0.000000   -51.001695           62.007762            -53.999081          
310   1     2     0.000000   -50.423951           58.085868            -52.699567          
311   1     3     0.000000   -52.005953           61.170786            -53.066131          
312   1     3     0.000000   -51.944354           58.596241            -52.877058          
313   1     4     0.000000   -54.074518           59.915077            -52.606463          
314   1     5     0.000000   -55.654949           58.596241            -52.877058          
315   1     1     0.000000   -50.144391           64.136544            -54.202342          
316   1     2     0.000000   -51.001695           66.307762            -53.999081          
317   1     2     0.000000   -50.423951           62.385868            -52.699567          
318   1     3     0.000000   -52.005953           65.470786            -53.066131          
319   1     3     0.000000   -51.944354           62.896241            -52.877058          
320   1     4     0.000000   -54.074518           64.215077            -52.606463          
321   1     5     0.000000   -55.654949           62.896241            -52.877058          
322   1     1     0.000000   -50.144391           68.436544            -54.202342          