LAMMPS data file via polygen.toy.py, on [timestamp]

6000 atoms
4 atom types
7150 bonds
4 bond types
10600 angles
6 angle types

-266.7942543449988 266.79425434499876 xlo xhi
-266.7942543449988 266.79425434499876 ylo yhi
-266.7942543449988 266.79425434499876 zlo zhi

Masses

1 28.0104
2 29.04156
3 40.02448
4 46.06904

Atoms

1     0     4     0.000000   -53.358851           -209.526551          160.076553          
2     0     4     0.000000   -53.358851           -205.226551          160.076553          
3     0     4     0.000000   -53.358851           -200.926551          160.076553          
4     0     4     0.000000   -53.358851           -196.626551          160.076553          
5     0     4     0.000000   -53.358851           -192.326551          160.076553          
6     0     4     0.000000   -53.358851           -188.026551          160.076553          
7     0     4     0.000000   -53.358851           -183.726551          160.076553          
8     0     4     0.000000   -53.358851           -179.426551          160.076553          
9     0     4     0.000000   -53.358851           -175.126551          160.076553          
10    0     4     0.000000   -53.358851           -170.826551          160.076553          
11    0     4     0.000000   -53.358851           -166.526551          160.076553          
12    0     4     0.000000   -53.358851           -162.226551          160.076553          
13    0     4     0.000000   -53.358851           -157.926551          160.076553          
14    0     4     0.000000   -53.358851           -153.626551          160.076553          
15    0     4     0.000000   -53.358851           -149.326551          160.076553          
16    0     4     0.000000   -53.358851           -145.026551          160.076553          
17    0     4     0.000000   -53.358851           -140.726551          160.076553          
18    0     4     0.000000   -53.358851           -136.426551          160.076553          
19    0     4     0.000000   -53.358851           -132.126551          160.076553          
20    0     4     0.000000   -53.358851           -127.826551          160.076553          
21    0     4     0.000000   -53.358851           -123.526551          160.076553          
22    0     4     0.000000   -53.358851           -119.226551          160.076553          
23    0     4     0.000000   -53.358851           -114.926551          160.076553          
24    0     4     0.000000   -53.358851           -110.626551          160.076553          
25    0     1     0.000000   -60.595522           -209.526551          160.076553          
26    0     2     0.000000   -59.558727           -207.625108          160.076553          
27    0     2     0.000000   -59.558732           -211.428000          160.076553          
28    0     3     0.000000   -57.658851           -209.526551          160.076553          
29    0     1     0.000000   -46.122180           -205.226551          160.076553          
30    0     2     0.000000   -47.158975           -203.325108          160.076553          
31    0     2     0.000000   -47.158970           -207.128000          160.076553          
32    0     3     0.000000   -49.058851           -205.226551          160.076553          
33    0     1     0.000000   -60.595522           -200.926551          160.076553          
34    0     2     0.000000   -59.558727           -199.025108          160.076553          
35    0     2     0.000000   -59.558732           -202.828000          160.076553          
36    0     3     0.000000   -57.658851           -200.926551          160.076553          
37    0     1     0.000000   -46.122180           -196.626551          160.076553          
38    0     2     0.000000   -47.158975           -194.725108          160.076553          
39    0     2     0.000000   -47.158970           -198.528000          160.076553          
40    0     3     0.000000   -49.058851           -196.626551          160.076553          
41    0     1     0.000000   -60.595522           -192.326551          160.076553          
42    0     2     0.000000   -59.558727           -190.425108          160.076553          
43    0     2     0.000000   -59.558732           -194.228000          160.076553          
44    0     3     0.000000   -57.658851           -192.326551          160.076553          
45    0     1     0.000000   -46.122180           -188.026551          160.076553          
46    0     2     0.000000   -47.158975           -186.125108          160.076553          
47    0     2     0.000000   -47.158970           -189.928000          160.076553          
48    0     3     0.000000   -49.058851           -188.026551          160.076553          
49    0     1     0.000000   -60.595522           -183.726551          160.076553          
50    0     2     0.000000   -59.558727           -181.825108          160.076553          
51    0     2     0.000000   -59.558732           -185.628000          160.076553          
52    0     3     0.000000   -57.658851           -183.726551          160.076553          
53    0     1     0.000000   -46.122180           -179.426551          160.076553          
54    0     2     0.000000   -47.158975           -177.525108          160.076553          
55    0     2     0.000000   -47.158970           -181.328000          160.076553          
56    0     3     0.000000   -49.058851           -179.426551          160.076553          
57    0     1     0.000000   -60.595522           -175.126551          160.076553          
58    0     2     0.000000   -59.558727           -173.225108          160.076553          
59    0     2     0.000000   -59.558732           -177.028000          160.076553          
60    0     3     0.000000   -57.658851           -175.126551          160.076553          
61    0     1     0.000000   -46.122180           -170.826551          160.076553          
62    0     2     0.000000   -47.158975           -168.925108          160.076553          
63    0     2     0.000000   -47.158970           -172.728000          160.076553          
64    0     3     0.000000   -49.058851           -170.826551          160.076553          
65    0     1     0.000000   -60.595522           -166.526551          160.076553          
66    0     2     0.000000   -59.558727           -164.625108          160.076553          
67    0     2     0.000000   -59.558732           -168.428000          160.076553          
68    0     3     0.000000   -57.658851           -166.526551          160.076553          
69    0     1     0.000000   -46.122180           -162.226551          160.076553          
70    0     2     0.000000   -47.158975           -160.325108          160.076553          
71    0     2     0.000000   -47.158970           -164.128000          160.076553          
72    0     3     0.000000   -49.058851           -162.226551          160.076553          
73    0     1     0.000000   -60.595522           -157.926551          160.076553          
74    0     2     0.000000   -59.558727           -156.025108          160.076553          
75    0     2     0.000000   -59.558732           -159.828000          160.076553          
76    0     3     0.000000   -57.658851           -157.926551          160.076553          
77    0     1     0.000000   -46.122180           -153.626551          160.076553          
78    0     2     0.000000   -47.158975           -151.725108          160.076553          
79    0     2     0.000000   -47.158970           -155.528000          160.076553          
80    0     3     0.000000   -49.058851           -153.626551          160.076553          
81    0     1     0.000000   -60.595522           -149.326551          160.076553          
82    0     2     0.000000   -59.558727           -147.425108          160.076553          
83    0     2     0.000000   -59.558732           -151.228000          160.076553          
84    0     3     0.000000   -57.658851           -149.326551          160.076553          
85    0     1     0.000000   -46.122180           -145.026551          160.076553          
86    0     2     0.000000   -47.158975           -143.125108          160.076553          
87    0     2     0.000000   -47.158970           -146.928000          160.076553          
88    0     3     0.000000   -49.058851           -145.026551          160.076553          
89    0     1     0.000000   -60.595522           -140.726551          160.076553          
90    0     2     0.000000   -59.558727           -138.825108          160.076553          
91    0     2     0.000000   -59.558732           -142.628000          160.076553          
92    0     3     0.000000   -57.658851           -140.726551          160.076553          
93    0     1     0.000000   -46.122180           -136.426551          160.076553          
94    0     2     0.000000   -47.158975           -134.525108          160.076553          
95    0     2     0.000000   -47.158970           -138.328000          160.076553          
96    0     3     0.000000   -49.058851           -136.426551          160.076553          
97    0     1     0.000000   -60.595522           -132.126551          160.076553          
98    0     2     0.000000   -59.558727           -130.225108          160.076553          
99    0     2     0.000000   -59.558732           -134.028000          160.076553          
100   0     3     0.000000   -57.658851           -132.126551          160.076553          
101   0     1     0.000000   -46.122180           -127.826551          160.076553          
102   0     2     0.000000   -47.158975           -125.925108          160.076553          
103   0     2     0.000000   -47.158970           -129.728000          160.076553          
104   0     3     0.000000   -49.058851           -127.826551          160.076553          
105   0     1     0.000000   -60.595522           -123.526551          160.076553          
106   0     2     0.000000   -59.558727           -121.625108          160.076553          
107   0     2     0.000000   -59.558732           -125.428000          160.076553          
108   0     3     0.000000   -57.658851           -123.526551          160.076553          
109   0     1     0.000000   -46.122180           -119.226551          160.076553          
110   0     2     0.000000   -47.158975           -117.325108          160.076553          
111   0     2     0.000000   -47.158970           -121.128000          160.076553          
112   0     3     0.000000   -49.058851           -119.226551          160.076553          
113   0     1     0.000000   -60.595522           -114.926551          160.076553          
114   0     2     0.000000   -59.558727           -113.025108          160.076553          
115   0     2     0.000000   -59.558732           -116.828000          160.076553          
116   0     3     0.000000   -57.658851           -114.926551          160.076553          
117   0     1     0.000000   -46.122180           -110.626551          160.076553          
118   0     2     0.000000   -47.158975           -108.725108          160.076553          
119   0     2     0.000000   -47.158970           -112.528000          160.076553          
120   0     3     0.000000   -49.058851           -110.626551          160.076553          
121   1     4     0.000000   -53.358851           3.908852             53.358851           
122   1     4     0.000000   -53.358851           8.208852             53.358851           
123   1     4     0.000000   -53.358851           12.508852            53.358851           
124   1     4     0.000000   -53.358851           16.808852            53.358851           
125   1     4     0.000000   -53.358851           21.108852            53.358851           
126   1     4     0.000000   -53.358851           25.408852            53.358851           
127   1     4     0.000000   -53.358851           29.708852            53.358851           
128   1     4     0.000000   -53.358851           34.008852            53.358851           
129   1     4     0.000000   -53.358851           38.308852            53.358851           
130   1     4     0.000000   -53.358851           42.608852            53.358851           
131   1     4     0.000000   -53.358851           46.908852            53.358851           
132   1     4     0.000000   -53.358851           51.208852            53.358851           
133   1     4     0.000000   -53.358851           55.508852            53.358851           
134   1     4     0.000000   -53.358851           59.808852            53.358851           
135   1     4     0.000000   -53.358851           64.108852            53.358851           
136   1     4     0.000000   -53.358851           68.408852            53.358851           
137   1     4     0.000000   -53.358851           72.708852            53.358851           
138   1     4     0.000000   -53.358851           77.008852            53.358851           
139   1     4     0.000000   -53.358851           81.308852            53.358851           
140   1     4     0.000000   -53.358851           85.608852            53.358851           
141   1     4     0.000000   -53.358851           89.908852            53.358851           
142   1     4     0.000000   -53.358851           94.208852            53.358851           
143   1     4     0.000000   -53.358851           98.508852            53.358851           
144   1     4     0.000000   -53.358851           102.808852           53.358851           
145   1     1     0.000000   -60.595522           3.908852             53.358851           
146   1     2     0.000000   -59.558727           5.810295             53.358851           
147   1     2     0.000000   -59.558732           2.007403             53.358851           
148   1     3     0.000000   -57.658851           3.908852             53.358851           
149   1     1     0.000000   -46.122180           8.208852             53.358851           
150   1     2     0.000000   -47.158975           10.110295            53.358851           
151   1     2     0.000000   -47.158970           6.307403             53.358851           
152   1     3     0.000000   -49.058851           8.208852             53.358851           
153   1     1     0.000000   -60.595522           12.508852            53.358851           
154   1     2     0.000000   -59.558727           14.410295            53.358851           
155   1     2     0.000000   -59.558732           10.607403            53.358851           
156   1     3     0.000000   -57.658851           12.508852            53.358851           
157   1     1     0.000000   -46.122180           16.808852            53.358851           
158   1     2     0.000000   -47.158975           18.710295            53.358851           
159   1     2     0.000000   -47.158970           14.907403            53.358851           
160   1     3     0.000000   -49.058851           16.808852            53.358851           
161   1     1     0.000000   -60.595522           21.108852            53.358851           
162   1     2     0.000000   -59.558727           23.010295            53.358851           
163   1     2     0.000000   -59.558732           19.207403            53.358851           
164   1     3     0.000000   -57.658851           21.108852            53.358851           
165   1     1     0.000000   -46.122180           25.408852            53.358851           
166   1     2     0.000000   -47.158975           27.310295            53.358851           
167   1     2     0.000000   -47.158970           23.507403            53.358851           
168   1     3     0.000000   -49.058851           25.408852            53.358851           
169   1     1     0.000000   -60.595522           29.708852            53.358851           
170   1     2     0.000000   -59.558727           31.610295            53.358851           
171   1     2     0.000000   -59.558732           27.807403            53.358851           
172   1     3     0.000000   -57.658851           29.708852            53.358851           
173   1     1     0.000000   -46.122180           34.008852            53.358851           
174   1     2     0.000000   -47.158975           35.910295            53.358851           
175   1     2     0.000000   -47.158970           32.107403            53.358851           
176   1     3     0.000000   -49.058851           34.008852            53.358851           
177   1     1     0.000000   -60.595522           38.308852            53.358851           
178   1     2     0.000000   -59.558727           40.210295            53.358851           
179   1     2     0.000000   -59.558732           36.407403            53.358851           
180   1     3     0.000000   -57.658851           38.308852            53.358851           
181   1     1     0.000000   -46.122180           42.608852            53.358851           
182   1     2     0.000000   -47.158975           44.510295            53.358851           
183   1     2     0.000000   -47.158970           40.707403            53.358851           
184   1     3     0.000000   -49.058851           42.608852            53.358851           
185   1     1     0.000000   -60.595522           46.908852            53.358851           
186   1     2     0.000000   -59.558727           48.810295            53.358851           
187   1     2     0.000000   -59.558732           45.007403            53.358851           
188   1     3     0.000000   -57.658851           46.908852            53.358851           
189   1     1     0.000000   -46.122180           51.208852            53.358851           
190   1     2     0.000000   -47.158975           53.110295            53.358851           
191   1     2     0.000000   -47.158970           49.307403            53.358851           
192   1     3     0.000000   -49.058851           51.208852            53.358851           
193   1     1     0.000000   -60.595522           55.508852            53.358851           
194   1     2     0.000000   -59.558727           57.410295            53.358851           
195   1     2     0.000000   -59.558732           53.607403            53.358851           
196   1     3     0.000000   -57.658851           55.508852            53.358851           
197   1     1     0.000000   -46.122180           59.808852            53.358851           
198   1     2     0.000000   -47.158975           61.710295            53.358851           
199   1     2     0.000000   -47.158970           57.907403            53.358851           
200   1     3     0.000000   -49.058851           59.808852            53.358851           
201   1     1     0.000000   -60.595522           64.108852            53.358851           
202   1     2     0.000000   -59.558727           66.010295            53.358851           
203   1     2     0.000000   -59.558732           62.207403            53.358851           
204   1     3     0.000000   -57.658851           64.108852            53.358851           
205   1     1     0.000000   -46.122180           68.408852            53.358851           
206   1     2     0.000000   -47.158975           70.310295            53.358851           
207   1     2     0.000000   -47.158970           66.507403            53.358851           
208   1     3     0.000000   -49.058851           68.408852            53.358851           
209   1     1     0.000000   -60.595522           72.708852            53.358851           
210   1     2     0.000000   -59.558727           74.610295            53.358851           
211   1     2     0.000000   -59.558732           70.807403            53.358851           
212   1     3     0.000000   -57.658851           72.708852            53.358851           
213   1     1     0.000000   -46.122180           77.008852            53.358851           
214   1     2     0.000000   -47.158975           78.910295            53.358851           
215   1     2     0.000000   -47.158970           75.107403            53.358851           
216   1     3     0.000000   -49.058851           77.008852            53.358851           
217   1     1     0.000000   -60.595522           81.308852            53.358851           
218   1     2     0.000000   -59.558727           83.210295            53.358851           
219   1     2     0.000000   -59.558732           79.407403            53.358851           
220   1     3     0.000000   -57.658851           81.308852            53.358851           
221   1     1     0.000000   -46.122180           85.608852            53.358851           
222   1     2     0.000000   -47.158975           87.510295            53.358851           
223   1     2     0.000000   -47.158970           83.707403            53.358851           
224   1     3     0.000000   -49.058851           85.608852            53.358851           
225   1     1     0.000000   -60.595522           89.908852            53.358851           
226   1     2     0.000000   -59.558727           91.810295            53.358851           
227   1     2     0.000000   -59.558732           88.007403            53.358851           
228   1     3     0.000000   -57.658851           89.908852            53.358851           
229   1     1     0.000000   -46.122180           94.208852            53.358851           
230   1     2     0.000000   -47.158975           96.110295            53.358851           
231   1     2     0.000000   -47.158970           92.307403            53.358851           
232   1     3     0.000000   -49.058851           94.208852            53.358851           
233   1     1     0.000000   -60.595522           98.508852            53.358851           
234   1     2     0.000000   -59.558727           100.410295           53.358851           
235   1     2     0.000000   -59.558732           96.607403            53.358851           
236   1     3     0.000000   -57.658851           98.508852            53.358851           
237   1     1     0.000000   -46.122180           102.808852           53.358851           
238   1     2     0.000000   -47.158975           104.710295           53.358851           
239   1     2     0.000000   -47.158970           100.907403           53.358851           
240   1     3     0.000000   -49.058851           102.808852           53.358851           
241   2     4     0.000000   160.076553           3.908852             160.076553          
242   2     4     0.000000   160.076553           8.208852             160.076553          
243   2     4     0.000000   160.076553           12.508852            160.076553          
244   2     4     0.000000   160.076553           16.808852            160.076553          
245   2     4     0.000000   160.076553           21.108852            160.076553          
246   2     4     0.000000   160.076553           25.408852            160.076553          
247   2     4     0.000000   160.076553           29.708852            160.076553          
248   2     4     0.000000   160.076553           34.008852            160.076553          
249   2     4     0.000000   160.076553           38.308852            160.076553          
250   2     4     0.000000   160.076553           42.608852            160.076553          
251   2     4     0.000000   160.076553           46.908852            160.076553          
252   2     4     0.000000   160.076553           51.208852            160.076553          
253   2     4     0.000000   160.076553           55.508852            160.076553          
254   2     4     0.000000   160.076553           59.808852            160.076553          
255   2     4     0.000000   160.076553           64.108852            160.076553          
256   2     4     0.000000   160.076553           68.408852            160.076553          
257   2     4     0.000000   160.076553           72.708852            160.076553          
258   2     4     0.000000   160.076553           77.008852            160.076553          
259   2     4     0.000000   160.076553           81.308852            160.076553          
260   2     4     0.000000   160.076553           85.608852            160.076553          
261   2     4     0.000000   160.076553           89.908852            160.076553          
262   2     4     0.000000   160.076553           94.208852            160.076553          
263   2     4     0.000000   160.076553           98.508852            160.076553          
264   2     4     0.000000   160.076553           102.808852           160.076553          
265   2     1     0.000000   152.839882           3.908852             160.076553          
266   2     2     0.000000   153.876677           5.810295             160.076553          
267   2     2     0.000000   153.876672           2.007403             160.076553          
268   2     3     0.000000   155.776553           3.908852             160.076553          
269   2     1     0.000000   167.313224           8.208852             160.076553          
270   2     2     0.000000   166.276429           10.110295            160.076553          
271   2     2     0.000000   166.276434           6.307403             160.076553          
272   2     3     0.000000   164.376553           8.208852             160.076553          
273   2     1     0.000000   152.839882           12.508852            160.076553          
274   2     2     0.000000   153.876677           14.410295            160.076553          
275   2     2     0.000000   153.876672           10.607403            160.076553          
276   2     3     0.000000   155.776553           12.508852            160.076553          
277   2     1     0.000000   167.313224           16.808852            160.076553          
278   2     2     0.000000   166.276429           18.710295            160.076553          
279   2     2     0.000000   166.276434           14.907403            160.076553          
280   2     3     0.000000   164.376553           16.808852            160.076553          
281   2     1     0.000000   152.839882           21.108852            160.076553          
282   2     2     0.000000   153.876677           23.010295            160.076553          
283   2     2     0.000000   153.876672           19.207403            160.076553          
284   2     3     0.000000   155.776553           21.108852            160.076553          
285   2     1     0.000000   167.313224           25.408852            160.076553          
286   2     2     0.000000   166.276429           27.310295            160.076553          
287   2     2     0.000000   166.276434           23.507403            160.076553          
288   2     3     0.000000   164.376553           25.408852            160.076553          
289   2     1     0.000000   152.839882           29.708852            160.076553          
290   2     2     0.000000   153.876677           31.610295            160.076553          
291   2     2     0.000000   153.876672           27.807403            160.076553          
292   2     3     0.000000   155.776553           29.708852            160.076553          
293   2     1     0.000000   167.313224           34.008852            160.076553          
294   2     2     0.000000   166.276429           35.910295            160.076553          
295   2     2     0.000000   166.276434           32.107403            160.076553          
296   2     3     0.000000   164.376553           34.008852            160.076553          
297   2     1     0.000000   152.839882           38.308852            160.076553          
298   2     2     0.000000   153.876677           40.210295            160.076553          
299   2     2     0.000000   153.876672           36.407403            160.076553          
300   2     3     0.000000   155.776553           38.308852            160.076553          
301   2     1     0.000000   167.313224           42.608852            160.076553          
302   2     2     0.000000   166.276429           44.510295            160.076553          
303   2     2     0.000000   166.276434           40.707403            160.076553          
304   2     3     0.000000   164.376553           42.608852            160.076553          
305   2     1     0.000000   152.839882           46.908852            160.076553          
306   2     2     0.000000   153.876677           48.810295            160.076553          
307   2     2     0.000000   153.876672           45.007403            160.076553          
308   2     3     0.000000   155.776553           46.908852            160.076553          
309   2     1     0.000000   167.313224           51.208852            160.076553          
310   2     2     0.000000   166.276429           53.110295            160.076553          
311   2     2     0.000000   166.276434           49.307403            160.076553          
312   2     3     0.000000   164.376553           51.208852            160.076553          
313   2     1     0.000000   152.839882           55.508852            160.076553          
314   2     2     0.000000   153.876677           57.410295            160.076553          
315   2     2     0.000000   153.876672           53.607403            160.076553          
316   2     3     0.000000   155.776553           55.508852            160.076553          
317   2     1     0.000000   167.313224           59.808852            160.076553          
318   2     2     0.000000   166.276429           61.710295            160.076553          
319   2     2     0.000000   166.276434           57.907403            160.076553          
320   2     3     0.000000   164.376553           59.808852            160.076553          
321   2     1     0.000000   152.839882           64.108852            160.076553          
322   2     2     0.000000   153.876677           66.010295            160.076553          