13
Image 1 energy:-0.00327 
C                     0.82809000           1.21220000           0.05363000         
C                    -0.04998000           0.00362000          -0.08913000         
C                    -1.35197000           0.09803000          -0.32727000         
C                     0.64411000          -1.31896000           0.05594000         
H                     1.62730000           1.19787000          -0.69301000         
H                     0.26552000           2.13818000          -0.06165000         
H                    -2.74094000           0.19902000           3.94317000         
H                    -1.97429000          -0.78338000          -0.42752000         
H                    -1.84027000           1.05998000          -0.42938000         
H                     1.43624000          -1.42213000          -0.69125000         
H                    -0.04672000          -2.15399000          -0.05689000         
H                     1.31315000           1.22204000           1.03395000         
H                     1.12354000          -1.39679000           1.03599000         
13
Image 2 energy:-0.00325 
C                     0.82780000           1.21223000           0.05379000         
C                    -0.05051000           0.00366000          -0.08756000         
C                    -1.35295000           0.09809000          -0.32314000         
C                     0.64390000          -1.31893000           0.05588000         
H                     1.62548000           1.19819000          -0.69449000         
H                     0.26494000           2.13823000          -0.06005000         
H                    -2.71362000           0.19682000           3.86583000         
H                    -1.97545000          -0.78331000          -0.42234000         
H                    -1.84147000           1.06005000          -0.42405000         
H                     1.43455000          -1.42196000          -0.69289000         
H                    -0.04715000          -2.15395000          -0.05574000         
H                     1.31487000           1.22179000           1.03312000         
H                     1.12526000          -1.39694000           1.03498000         
13
Image 3 energy:-0.00322 
C                     0.82750000           1.21227000           0.05396000         
C                    -0.05103000           0.00370000          -0.08598000         
C                    -1.35391000           0.09815000          -0.31906000         
C                     0.64367000          -1.31891000           0.05585000         
H                     1.62361000           1.19853000          -0.69600000         
H                     0.26435000           2.13827000          -0.05839000         
H                    -2.68619000           0.19465000           3.78851000         
H                    -1.97659000          -0.78324000          -0.41718000         
H                    -1.84267000           1.06011000          -0.41877000         
H                     1.43280000          -1.42182000          -0.69454000         
H                    -0.04759000          -2.15392000          -0.05452000         
H                     1.31662000           1.22153000           1.03227000         
H                     1.12701000          -1.39708000           1.03395000         
13
Image 4 energy:-0.00319 
C                     0.82720000           1.21230000           0.05411000         
C                    -0.05156000           0.00375000          -0.08443000         
C                    -1.35487000           0.09821000          -0.31498000         
C                     0.64342000          -1.31889000           0.05585000         
H                     1.62180000           1.19884000          -0.69744000         
H                     0.26379000           2.13831000          -0.05682000         
H                    -2.65843000           0.19244000           3.71126000         
H                    -1.97772000          -0.78317000          -0.41211000         
H                    -1.84385000           1.06018000          -0.41348000         
H                     1.43110000          -1.42170000          -0.69608000         
H                    -0.04806000          -2.15388000          -0.05330000         
H                     1.31829000           1.22128000           1.03145000         
H                     1.12865000          -1.39720000           1.03301000         
13
Image 5 energy:-0.00316 
C                     0.82689000           1.21234000           0.05429000         
C                    -0.05208000           0.00378000          -0.08286000         
C                    -1.35581000           0.09826000          -0.31096000         
C                     0.64317000          -1.31887000           0.05585000         
H                     1.61992000           1.19919000          -0.69892000         
H                     0.26319000           2.13835000          -0.05515000         
H                    -2.63061000           0.19061000           3.63402000         
H                    -1.97886000          -0.78310000          -0.40698000         
H                    -1.84501000           1.06024000          -0.40833000         
H                     1.42932000          -1.42159000          -0.69767000         
H                    -0.04853000          -2.15384000          -0.05201000         
H                     1.32001000           1.22100000           1.03060000         
H                     1.13038000          -1.39733000           1.03202000         
13
Image 6 energy:-0.00311 
C                     0.82658000           1.21237000           0.05447000         
C                    -0.05261000           0.00382000          -0.08132000         
C                    -1.35676000           0.09832000          -0.30693000         
C                     0.64290000          -1.31885000           0.05588000         
H                     1.61811000           1.19951000          -0.70034000         
H                     0.26261000           2.13839000          -0.05355000         
H                    -2.60247000           0.18844000           3.55688000         
H                    -1.97998000          -0.78303000          -0.40190000         
H                    -1.84619000           1.06030000          -0.40307000         
H                     1.42760000          -1.42149000          -0.69917000         
H                    -0.04902000          -2.15380000          -0.05076000         
H                     1.32165000           1.22075000           1.02979000         
H                     1.13198000          -1.39743000           1.03110000         
13
Image 7 energy:-0.00307 
C                     0.82626000           1.21241000           0.05464000         
C                    -0.05314000           0.00386000          -0.07977000         
C                    -1.35769000           0.09839000          -0.30294000         
C                     0.64261000          -1.31883000           0.05593000         
H                     1.61626000           1.19985000          -0.70177000         
H                     0.26203000           2.13843000          -0.05192000         
H                    -2.57428000           0.18629000           3.47973000         
H                    -1.98109000          -0.78295000          -0.39686000         
H                    -1.84731000           1.06037000          -0.39797000         
H                     1.42583000          -1.42142000          -0.70067000         
H                    -0.04953000          -2.15376000          -0.04944000         
H                     1.32331000           1.22049000           1.02897000         
H                     1.13361000          -1.39753000           1.03018000         
13
Image 8 energy:-0.00301 
C                     0.82593000           1.21244000           0.05483000         
C                    -0.05367000           0.00390000          -0.07823000         
C                    -1.35861000           0.09845000          -0.29896000         
C                     0.64232000          -1.31882000           0.05599000         
H                     1.61440000           1.20021000          -0.70317000         
H                     0.26143000           2.13847000          -0.05028000         
H                    -2.54579000           0.18420000           3.40267000         
H                    -1.98220000          -0.78286000          -0.39182000         
H                    -1.84843000           1.06045000          -0.39285000         
H                     1.42406000          -1.42136000          -0.70214000         
H                    -0.05005000          -2.15371000          -0.04811000         
H                     1.32494000           1.22021000           1.02815000         
H                     1.13521000          -1.39762000           1.02928000         
13
Image 9 energy:-0.00295 
C                     0.82560000           1.21247000           0.05502000         
C                    -0.05419000           0.00393000          -0.07670000         
C                    -1.35953000           0.09850000          -0.29500000         
C                     0.64202000          -1.31880000           0.05606000         
H                     1.61255000           1.20056000          -0.70456000         
H                     0.26083000           2.13850000          -0.04864000         
H                    -2.51731000           0.18229000           3.32560000         
H                    -1.98329000          -0.78280000          -0.38679000         
H                    -1.84957000           1.06050000          -0.38771000         
H                     1.42230000          -1.42131000          -0.70359000         
H                    -0.05057000          -2.15367000          -0.04678000         
H                     1.32655000           1.21994000           1.02735000         
H                     1.13679000          -1.39770000           1.02839000         
13
Image 10 energy:-0.00288 
C                     0.82527000           1.21251000           0.05518000         
C                    -0.05471000           0.00397000          -0.07517000         
C                    -1.36044000           0.09857000          -0.29103000         
C                     0.64171000          -1.31878000           0.05614000         
H                     1.61072000           1.20088000          -0.70596000         
H                     0.26024000           2.13854000          -0.04708000         
H                    -2.48890000           0.18007000           3.24851000         
H                    -1.98436000          -0.78271000          -0.38180000         
H                    -1.85069000           1.06057000          -0.38256000         
H                     1.42052000          -1.42128000          -0.70501000         
H                    -0.05111000          -2.15362000          -0.04543000         
H                     1.32816000           1.21971000           1.02652000         
H                     1.13834000          -1.39778000           1.02751000         
13
Image 11 energy:-0.00281 
C                     0.82492000           1.21255000           0.05536000         
C                    -0.05523000           0.00401000          -0.07368000         
C                    -1.36134000           0.09863000          -0.28705000         
C                     0.64139000          -1.31877000           0.05623000         
H                     1.60892000           1.20123000          -0.70728000         
H                     0.25964000           2.13857000          -0.04552000         
H                    -2.46014000           0.17813000           3.17153000         
H                    -1.98547000          -0.78262000          -0.37669000         
H                    -1.85176000           1.06064000          -0.37749000         
H                     1.41877000          -1.42126000          -0.70638000         
H                    -0.05165000          -2.15358000          -0.04411000         
H                     1.32967000           1.21948000           1.02574000         
H                     1.13984000          -1.39787000           1.02667000         
13
Image 12 energy:-0.00272 
C                     0.82457000           1.21258000           0.05554000         
C                    -0.05576000           0.00404000          -0.07218000         
C                    -1.36225000           0.09869000          -0.28308000         
C                     0.64106000          -1.31876000           0.05631000         
H                     1.60715000           1.20152000          -0.70856000         
H                     0.25905000           2.13860000          -0.04405000         
H                    -2.43121000           0.17613000           3.09459000         
H                    -1.98654000          -0.78255000          -0.37168000         
H                    -1.85287000           1.06069000          -0.37243000         
H                     1.41706000          -1.42118000          -0.70771000         
H                    -0.05218000          -2.15353000          -0.04287000         
H                     1.33112000           1.21929000           1.02499000         
H                     1.14126000          -1.39798000           1.02584000         
13
Image 13 energy:-0.00262 
C                     0.82423000           1.21262000           0.05570000         
C                    -0.05626000           0.00408000          -0.07065000         
C                    -1.36316000           0.09876000          -0.27910000         
C                     0.64073000          -1.31874000           0.05640000         
H                     1.60543000           1.20172000          -0.70982000         
H                     0.25849000           2.13863000          -0.04270000         
H                    -2.40244000           0.17389000           3.01761000         
H                    -1.98759000          -0.78247000          -0.36672000         
H                    -1.85398000           1.06077000          -0.36729000         
H                     1.41538000          -1.42108000          -0.70900000         
H                    -0.05272000          -2.15347000          -0.04168000         
H                     1.33254000           1.21917000           1.02423000         
H                     1.14263000          -1.39811000           1.02504000         
13
Image 14 energy:-0.00251 
C                     0.82390000           1.21266000           0.05583000         
C                    -0.05675000           0.00412000          -0.06919000         
C                    -1.36407000           0.09882000          -0.27501000         
C                     0.64041000          -1.31873000           0.05647000         
H                     1.60382000           1.20192000          -0.71098000         
H                     0.25794000           2.13865000          -0.04148000         
H                    -2.37405000           0.17183000           2.94052000         
H                    -1.98867000          -0.78237000          -0.36163000         
H                    -1.85503000           1.06085000          -0.36219000         
H                     1.41380000          -1.42098000          -0.71021000         
H                    -0.05323000          -2.15342000          -0.04060000         
H                     1.33381000           1.21908000           1.02353000         
H                     1.14389000          -1.39827000           1.02428000         
13
Image 15 energy:-0.00239 
C                     0.82354000           1.21271000           0.05597000         
C                    -0.05724000           0.00415000          -0.06771000         
C                    -1.36496000           0.09888000          -0.27095000         
C                     0.64007000          -1.31873000           0.05652000         
H                     1.60223000           1.20208000          -0.71209000         
H                     0.25737000           2.13868000          -0.04033000         
H                    -2.34539000           0.16985000           2.86352000         
H                    -1.98976000          -0.78229000          -0.35640000         
H                    -1.85611000           1.06089000          -0.35707000         
H                     1.41225000          -1.42082000          -0.71139000         
H                    -0.05376000          -2.15336000          -0.03964000         
H                     1.33501000           1.21906000           1.02286000         
H                     1.14507000          -1.39851000           1.02353000         
13
Image 16 energy:-0.00226 
C                     0.82320000           1.21275000           0.05608000         
C                    -0.05772000           0.00419000          -0.06624000         
C                    -1.36586000           0.09895000          -0.26683000         
C                     0.63973000          -1.31871000           0.05657000         
H                     1.60077000           1.20208000          -0.71310000         
H                     0.25687000           2.13869000          -0.03945000         
H                    -2.31686000           0.16758000           2.78649000         
H                    -1.99079000          -0.78221000          -0.35143000         
H                    -1.85721000           1.06097000          -0.35183000         
H                     1.41083000          -1.42058000          -0.71244000         
H                    -0.05425000          -2.15330000          -0.03886000         
H                     1.33607000           1.21916000           1.02223000         
H                     1.14608000          -1.39879000           1.02286000         
13
Image 17 energy:-0.00211 
C                     0.82287000           1.21279000           0.05615000         
C                    -0.05815000           0.00422000          -0.06476000         
C                    -1.36681000           0.09902000          -0.26259000         
C                     0.63941000          -1.31871000           0.05658000         
H                     1.59945000           1.20197000          -0.71402000         
H                     0.25639000           2.13870000          -0.03878000         
H                    -2.28882000           0.16560000           2.70931000         
H                    -1.99185000          -0.78211000          -0.34639000         
H                    -1.85825000           1.06104000          -0.34681000         
H                     1.40956000          -1.42023000          -0.71343000         
H                    -0.05470000          -2.15325000          -0.03831000         
H                     1.33696000           1.21935000           1.02165000         
H                     1.14695000          -1.39916000           1.02221000         
13
Image 18 energy:-0.00196 
C                     0.82254000           1.21284000           0.05619000         
C                    -0.05855000           0.00425000          -0.06329000         
C                    -1.36774000           0.09908000          -0.25830000         
C                     0.63909000          -1.31871000           0.05655000         
H                     1.59824000           1.20178000          -0.71485000         
H                     0.25592000           2.13870000          -0.03833000         
H                    -2.26116000           0.16369000           2.63206000         
H                    -1.99293000          -0.78203000          -0.34111000         
H                    -1.85934000           1.06108000          -0.34159000         
H                     1.40841000          -1.41981000          -0.71433000         
H                    -0.05514000          -2.15318000          -0.03799000         
H                     1.33771000           1.21967000           1.02112000         
H                     1.14765000          -1.39963000           1.02161000         
13
Image 19 energy:-0.00179 
C                     0.82222000           1.21289000           0.05618000         
C                    -0.05891000           0.00428000          -0.06188000         
C                    -1.36868000           0.09916000          -0.25384000         
C                     0.63877000          -1.31871000           0.05650000         
H                     1.59723000           1.20147000          -0.71553000         
H                     0.25549000           2.13869000          -0.03819000         
H                    -2.23408000           0.16145000           2.55468000         
H                    -1.99398000          -0.78193000          -0.33599000         
H                    -1.86042000           1.06117000          -0.33626000         
H                     1.40747000          -1.41934000          -0.71505000         
H                    -0.05556000          -2.15311000          -0.03790000         
H                     1.33823000           1.22010000           1.02066000         
H                     1.14811000          -1.40015000           1.02112000         
13
Image 20 energy:-0.00160 
C                     0.82190000           1.21294000           0.05615000         
C                    -0.05921000           0.00430000          -0.06055000         
C                    -1.36967000           0.09922000          -0.24923000         
C                     0.63847000          -1.31872000           0.05641000         
H                     1.59642000           1.20108000          -0.71604000         
H                     0.25508000           2.13867000          -0.03826000         
H                    -2.20746000           0.15976000           2.47720000         
H                    -1.99503000          -0.78184000          -0.33077000         
H                    -1.86145000           1.06120000          -0.33118000         
H                     1.40673000          -1.41879000          -0.71563000         
H                    -0.05593000          -2.15303000          -0.03808000         
H                     1.33850000           1.22060000           1.02032000         
H                     1.14834000          -1.40073000           1.02070000         
13
Image 21 energy:-0.00140 
C                     0.82159000           1.21300000           0.05608000         
C                    -0.05945000           0.00432000          -0.05929000         
C                    -1.37065000           0.09929000          -0.24451000         
C                     0.63815000          -1.31873000           0.05628000         
H                     1.59579000           1.20063000          -0.71640000         
H                     0.25467000           2.13863000          -0.03858000         
H                    -2.18139000           0.15790000           2.39964000         
H                    -1.99610000          -0.78174000          -0.32550000         
H                    -1.86256000           1.06125000          -0.32573000         
H                     1.40618000          -1.41823000          -0.71605000         
H                    -0.05632000          -2.15294000          -0.03848000         
H                     1.33855000           1.22120000           1.02007000         
H                     1.14830000          -1.40136000           1.02039000         
13
Image 22 energy:-0.00118 
C                     0.82129000           1.21305000           0.05598000         
C                    -0.05960000           0.00433000          -0.05820000         
C                    -1.37172000           0.09937000          -0.23951000         
C                     0.63786000          -1.31873000           0.05614000         
H                     1.59539000           1.20015000          -0.71657000         
H                     0.25431000           2.13858000          -0.03906000         
H                    -2.15598000           0.15594000           2.32197000         
H                    -1.99713000          -0.78162000          -0.32061000         
H                    -1.86358000           1.06130000          -0.32087000         
H                     1.40586000          -1.41767000          -0.71627000         
H                    -0.05666000          -2.15284000          -0.03901000         
H                     1.33835000           1.22177000           1.01993000         
H                     1.14804000          -1.40192000           1.02020000         
13
Image 23 energy:-0.00094 
C                     0.82100000           1.21309000           0.05586000         
C                    -0.05966000           0.00433000          -0.05723000         
C                    -1.37286000           0.09945000          -0.23434000         
C                     0.63758000          -1.31874000           0.05598000         
H                     1.59518000           1.19964000          -0.71657000         
H                     0.25395000           2.13851000          -0.03966000         
H                    -2.13081000           0.15417000           2.24434000         
H                    -1.99817000          -0.78152000          -0.31595000         
H                    -1.86464000           1.06133000          -0.31617000         
H                     1.40573000          -1.41711000          -0.71632000         
H                    -0.05700000          -2.15271000          -0.03969000         
H                     1.33790000           1.22233000           1.01991000         
H                     1.14753000          -1.40243000           1.02013000         
13
Image 24 energy:-0.00071 
C                     0.82073000           1.21313000           0.05571000         
C                    -0.05956000           0.00432000          -0.05651000         
C                    -1.37411000           0.09955000          -0.22880000         
C                     0.63731000          -1.31874000           0.05580000         
H                     1.59522000           1.19924000          -0.71638000         
H                     0.25360000           2.13842000          -0.04033000         
H                    -2.10674000           0.15232000           2.16659000         
H                    -1.99916000          -0.78139000          -0.31194000         
H                    -1.86564000           1.06137000          -0.31211000         
H                     1.40582000          -1.41669000          -0.71617000         
H                    -0.05732000          -2.15257000          -0.04040000         
H                     1.33722000           1.22280000           1.02000000         
H                     1.14680000          -1.40281000           1.02019000         
13
Image 25 energy:-0.00047 
C                     0.82049000           1.21317000           0.05556000         
C                    -0.05931000           0.00431000          -0.05607000         
C                    -1.37551000           0.09964000          -0.22288000         
C                     0.63707000          -1.31874000           0.05560000         
H                     1.59546000           1.19895000          -0.71601000         
H                     0.25326000           2.13830000          -0.04096000         
H                    -2.08348000           0.15074000           2.08889000         
H                    -2.00010000          -0.78128000          -0.30873000         
H                    -1.86657000           1.06137000          -0.30893000         
H                     1.40612000          -1.41641000          -0.71585000         
H                    -0.05763000          -2.15241000          -0.04110000         
H                     1.33633000           1.22311000           1.02023000         
H                     1.14588000          -1.40303000           1.02037000         
13
Image 26 energy:-0.00025 
C                     0.82027000           1.21321000           0.05539000         
C                    -0.05886000           0.00428000          -0.05596000         
C                    -1.37708000           0.09975000          -0.21649000         
C                     0.63686000          -1.31874000           0.05539000         
H                     1.59595000           1.19886000          -0.71544000         
H                     0.25289000           2.13817000          -0.04155000         
H                    -2.06123000           0.14908000           2.01139000         
H                    -2.00098000          -0.78118000          -0.30683000         
H                    -1.86752000           1.06138000          -0.30685000         
H                     1.40663000          -1.41638000          -0.71530000         
H                    -0.05797000          -2.15222000          -0.04175000         
H                     1.33520000           1.22331000           1.02059000         
H                     1.14472000          -1.40307000           1.02070000         
13
Image 27 energy:-0.00008 
C                     0.82013000           1.21323000           0.05525000         
C                    -0.05798000           0.00421000          -0.05634000         
C                    -1.37920000           0.09990000          -0.20930000         
C                     0.63672000          -1.31874000           0.05521000         
H                     1.59666000           1.19914000          -0.71473000         
H                     0.25254000           2.13801000          -0.04190000         
H                    -2.04020000           0.14755000           1.93450000         
H                    -2.00166000          -0.78102000          -0.30777000         
H                    -1.86824000           1.06132000          -0.30779000         