16
Image 1 energy:-0.06866 
C                     2.06615000          -0.00161000           0.00318000         
C                     0.74365000          -0.70529000           0.35193000         
C                    -0.50782000          -0.01088000          -0.11621000         
C                    -0.57479000           1.48651000          -0.14611000         
C                    -1.77430000          -0.81311000          -0.12363000         
H                     2.92704000          -0.59924000           0.33835000         
H                     2.13772000           0.98241000           0.48681000         
H                     2.15718000           0.15033000          -1.08409000         
H                     0.75914000          -1.73093000          -0.06012000         
H                     0.69968000          -0.84728000           1.45448000         
H                    -0.50624000           1.93422000           0.87130000         
H                    -1.50947000           1.83909000          -0.58986000         
H                    -2.10082000          -1.09320000           0.91341000         
H                    -1.64611000          -1.76919000          -0.65673000         
H                     0.25374000           1.92488000          -0.71700000         
H                    -2.61096000          -0.26269000          -0.58940000         
16
Image 2 energy:-0.06866 
C                     2.06591000          -0.00152000           0.00167000         
C                     0.74380000          -0.70490000           0.35080000         
C                    -0.50733000          -0.01134000          -0.11620000         
C                    -0.57384000           1.48525000          -0.14262000         
C                    -1.77410000          -0.81320000          -0.12246000         
H                     2.92623000          -0.60748000           0.32137000         
H                     2.14733000           0.97392000           0.50038000         
H                     2.15170000           0.16503000          -1.08026000         
H                     0.75743000          -1.73150000          -0.05702000         
H                     0.70285000          -0.84085000           1.45465000         
H                    -0.52916000           1.93262000           0.87123000         
H                    -1.52274000           1.83500000          -0.60052000         
H                    -2.11914000          -1.05619000           0.89981000         
H                    -1.64466000          -1.77958000          -0.63485000         
H                     0.26951000           1.93062000          -0.71876000         
H                    -2.59681000          -0.27741000          -0.61294000         
16
Image 3 energy:-0.06868 
C                     2.06646000          -0.00332000           0.00048000         
C                     0.74462000          -0.70540000           0.35091000         
C                    -0.50614000          -0.01143000          -0.11569000         
C                    -0.57783000           1.48638000          -0.14626000         
C                    -1.77293000          -0.81206000          -0.11992000         
H                     2.92469000          -0.61954000           0.30189000         
H                     2.15330000           0.96527000           0.51713000         
H                     2.14373000           0.18488000          -1.08075000         
H                     0.75524000          -1.73181000          -0.05633000         
H                     0.70575000          -0.84070000           1.45603000         
H                    -0.55051000           1.93372000           0.88113000         
H                    -1.49956000           1.83742000          -0.62562000         
H                    -2.12559000          -1.04462000           0.90566000         
H                    -1.63361000          -1.79026000          -0.63445000         
H                     0.26846000           1.93132000          -0.67817000         
H                    -2.59632000          -0.28000000          -0.62368000         
16
Image 4 energy:-0.06872 
C                     2.06697000          -0.00402000          -0.00353000         
C                     0.74495000          -0.70518000           0.35626000         
C                    -0.50511000          -0.01044000          -0.11526000         
C                    -0.57827000           1.48608000          -0.14193000         
C                    -1.77297000          -0.81094000          -0.12474000         
H                     2.92702000          -0.62715000           0.27906000         
H                     2.16624000           0.95706000           0.52155000         
H                     2.12863000           0.19413000          -1.08366000         
H                     0.75481000          -1.73220000          -0.05261000         
H                     0.70806000          -0.84271000           1.46029000         
H                    -0.58367000           1.92395000           0.87126000         
H                    -1.49858000           1.83141000          -0.63912000         
H                    -2.13639000          -1.03517000           0.91119000         
H                    -1.62672000          -1.79047000          -0.59897000         
H                     0.28032000           1.93969000          -0.67620000         
H                    -2.59072000          -0.28862000          -0.64512000         
16
Image 5 energy:-0.06879 
C                     2.06787000          -0.00541000          -0.00584000         
C                     0.74602000          -0.70214000           0.35682000         
C                    -0.50556000          -0.01108000          -0.11324000         
C                    -0.58072000           1.48550000          -0.14174000         
C                    -1.77211000          -0.81240000          -0.12434000         
H                     2.93005000          -0.63582000           0.26078000         
H                     2.18224000           0.94828000           0.52391000         
H                     2.11777000           0.20013000          -1.08463000         
H                     0.75544000          -1.73037000          -0.04863000         
H                     0.70908000          -0.83793000           1.46050000         
H                    -0.60069000           1.93005000           0.88663000         
H                    -1.49166000           1.83422000          -0.65835000         
H                    -2.15653000          -1.00306000           0.89624000         
H                    -1.62523000          -1.80390000          -0.58682000         
H                     0.28973000           1.93419000          -0.64410000         
H                    -2.58055000          -0.29363000          -0.66808000         
16
Image 6 energy:-0.06874 
C                     2.06845000          -0.00691000          -0.01036000         
C                     0.74707000          -0.70211000           0.35869000         
C                    -0.50423000          -0.01161000          -0.11271000         
C                    -0.58207000           1.48499000          -0.13784000         
C                    -1.77374000          -0.80956000          -0.12516000         
H                     2.92698000          -0.64007000           0.24545000         
H                     2.18760000           0.94300000           0.53294000         
H                     2.11528000           0.21317000          -1.08602000         
H                     0.75407000          -1.73330000          -0.03714000         
H                     0.71393000          -0.82536000           1.46426000         
H                    -0.63931000           1.92601000           0.87501000         
H                    -1.47315000           1.82628000          -0.67910000         
H                    -2.16814000          -0.99184000           0.90325000         
H                    -1.61777000          -1.81279000          -0.57992000         
H                     0.30025000           1.94034000          -0.62463000         
H                    -2.56963000          -0.30724000          -0.68809000         
16
Image 7 energy:-0.06875 
C                     2.06815000          -0.00766000          -0.01417000         
C                     0.74779000          -0.70251000           0.36251000         
C                    -0.50319000          -0.01157000          -0.11213000         
C                    -0.58342000           1.48527000          -0.13699000         
C                    -1.77107000          -0.81049000          -0.12883000         
H                     2.92623000          -0.65067000           0.22650000         
H                     2.19352000           0.93780000           0.53298000         
H                     2.10477000           0.22001000          -1.08873000         
H                     0.75154000          -1.73473000          -0.02985000         
H                     0.71841000          -0.82121000           1.46996000         
H                    -0.65777000           1.92292000           0.88720000         
H                    -1.47700000           1.82981000          -0.69348000         
H                    -2.18153000          -0.96505000           0.89299000         
H                    -1.61417000          -1.81342000          -0.54009000         
H                     0.30267000           1.94354000          -0.59525000         
H                    -2.56970000          -0.31000000          -0.70971000         
16
Image 8 energy:-0.06878 
C                     2.07067000          -0.01092000          -0.01744000         
C                     0.74883000          -0.70094000           0.36520000         
C                    -0.50207000          -0.01054000          -0.10937000         
C                    -0.59019000           1.48552000          -0.13413000         
C                    -1.77057000          -0.80841000          -0.12897000         
H                     2.93108000          -0.65541000           0.21338000         
H                     2.20668000           0.93275000           0.52642000         
H                     2.09380000           0.21351000          -1.09355000         
H                     0.75047000          -1.73330000          -0.02834000         
H                     0.72303000          -0.82154000           1.47087000         
H                    -0.69271000           1.91916000           0.88745000         
H                    -1.45574000           1.82590000          -0.71482000         
H                    -2.19757000          -0.94816000           0.88768000         
H                    -1.60701000          -1.82366000          -0.54041000         
H                     0.31228000           1.94870000          -0.58171000         
H                    -2.54837000          -0.31875000          -0.73268000         
16
Image 9 energy:-0.06870 
C                     2.06918000          -0.01098000          -0.02109000         
C                     0.74910000          -0.69928000           0.36666000         
C                    -0.50173000          -0.01110000          -0.10818000         
C                    -0.58552000           1.48406000          -0.13279000         
C                    -1.77154000          -0.80843000          -0.13062000         
H                     2.93021000          -0.65366000           0.20461000         
H                     2.21096000           0.93409000           0.52556000         
H                     2.08776000           0.21647000          -1.09736000         
H                     0.75081000          -1.73218000          -0.02638000         
H                     0.72286000          -0.81930000           1.47330000         
H                    -0.72317000           1.91046000           0.87963000         
H                    -1.45782000           1.82971000          -0.73142000         
H                    -2.20859000          -0.92907000           0.88981000         
H                    -1.60227000          -1.83178000          -0.51746000         
H                     0.31773000           1.94869000          -0.53781000         
H                    -2.54628000          -0.32875000          -0.75265000         
16
Image 10 energy:-0.06874 
C                     2.06858000          -0.01227000          -0.02600000         
C                     0.74941000          -0.69855000           0.36872000         
C                    -0.50158000          -0.01156000          -0.10683000         
C                    -0.58932000           1.48510000          -0.12760000         
C                    -1.76972000          -0.80949000          -0.13343000         
H                     2.92638000          -0.65909000           0.19725000         
H                     2.21228000           0.93321000           0.51682000         
H                     2.08875000           0.21613000          -1.09970000         
H                     0.75029000          -1.73369000          -0.01673000         
H                     0.72699000          -0.81050000           1.47653000         
H                    -0.74191000           1.91926000           0.89129000         
H                    -1.42583000           1.82243000          -0.74769000         
H                    -2.22546000          -0.90609000           0.87429000         
H                    -1.59878000          -1.83443000          -0.48938000         
H                     0.33273000           1.95177000          -0.52890000         
H                    -2.53794000          -0.34214000          -0.77445000         
16
Image 11 energy:-0.06883 
C                     2.07049000          -0.01606000          -0.03008000         
C                     0.75122000          -0.69609000           0.37254000         
C                    -0.49997000          -0.01090000          -0.10893000         
C                    -0.59178000           1.48547000          -0.12469000         
C                    -1.76999000          -0.80835000          -0.13411000         
H                     2.92647000          -0.67066000           0.18933000         
H                     2.22183000           0.93007000           0.50784000         
H                     2.08339000           0.20925000          -1.10708000         
H                     0.74885000          -1.73473000          -0.00086000         
H                     0.72998000          -0.79478000           1.47962000         
H                    -0.77786000           1.90637000           0.88689000         
H                    -1.42909000           1.82937000          -0.75901000         
H                    -2.23976000          -0.89286000           0.87048000         
H                    -1.59213000          -1.84172000          -0.48383000         
H                     0.33033000           1.95949000          -0.49044000         
H                    -2.52538000          -0.35296000          -0.79201000         
16
Image 12 energy:-0.06883 
C                     2.07402000          -0.01986000          -0.03505000         
C                     0.75205000          -0.69324000           0.37515000         
C                    -0.49928000          -0.01105000          -0.10658000         
C                    -0.59780000           1.48422000          -0.12058000         
C                    -1.76906000          -0.80678000          -0.13892000         
H                     2.93246000          -0.66661000           0.18781000         
H                     2.23282000           0.92981000           0.49794000         
H                     2.07990000           0.19069000          -1.11382000         
H                     0.74665000          -1.73550000           0.01210000         
H                     0.73606000          -0.78191000           1.48589000         
H                    -0.80456000           1.90069000           0.89288000         
H                    -1.41778000           1.82345000          -0.77325000         
H                    -2.24763000          -0.87332000           0.86576000         
H                    -1.59404000          -1.84423000          -0.46590000         
H                     0.33225000           1.96260000          -0.46904000         
H                    -2.51904000          -0.34960000          -0.81114000         
16
Image 13 energy:-0.06885 
C                     2.07246000          -0.01842000          -0.03852000         
C                     0.75262000          -0.69689000           0.37645000         
C                    -0.49753000          -0.01127000          -0.10706000         
C                    -0.59751000           1.48417000          -0.11892000         
C                    -1.76860000          -0.80445000          -0.13696000         
H                     2.92948000          -0.66721000           0.18925000         
H                     2.21994000           0.93277000           0.49119000         
H                     2.08572000           0.19575000          -1.11659000         
H                     0.74724000          -1.73897000           0.00738000         
H                     0.73785000          -0.78884000           1.48551000         
H                    -0.83556000           1.89275000           0.88724000         
H                    -1.40417000           1.82418000          -0.78988000         
H                    -2.26171000          -0.84535000           0.85577000         
H                    -1.59247000          -1.84977000          -0.44413000         
H                     0.33600000           1.96874000          -0.43914000         
H                    -2.50313000          -0.36610000          -0.82877000         
16
Image 14 energy:-0.06883 
C                     2.07640000          -0.02284000          -0.03422000         
C                     0.75463000          -0.69335000           0.36781000         
C                    -0.49754000          -0.00987000          -0.10948000         
C                    -0.60204000           1.48546000          -0.11683000         
C                    -1.76955000          -0.80536000          -0.13410000         
H                     2.93161000          -0.67289000           0.20305000         
H                     2.22881000           0.93435000           0.48651000         
H                     2.09029000           0.17941000          -1.11742000         
H                     0.74910000          -1.73205000          -0.00182000         
H                     0.73553000          -0.78881000           1.47709000         
H                    -0.86451000           1.89351000           0.88644000         
H                    -1.39452000           1.82842000          -0.80452000         
H                    -2.26914000          -0.83313000           0.86289000         
H                    -1.58672000          -1.85421000          -0.41887000         
H                     0.34225000           1.97153000          -0.41829000         
H                    -2.50909000          -0.37881000          -0.83580000         
16
Image 15 energy:-0.06887 
C                     2.07757000          -0.02324000          -0.04213000         
C                     0.75505000          -0.69515000           0.37373000         
C                    -0.49625000          -0.01075000          -0.10850000         
C                    -0.60485000           1.48447000          -0.11312000         
C                    -1.76870000          -0.80230000          -0.13665000         
H                     2.93517000          -0.66223000           0.20652000         
H                     2.22447000           0.93731000           0.47097000         
H                     2.09714000           0.16654000          -1.12267000         
H                     0.74869000          -1.73761000           0.00874000         
H                     0.74051000          -0.78512000           1.48280000         
H                    -0.89504000           1.88533000           0.88314000         
H                    -1.38146000           1.82243000          -0.81772000         
H                    -2.28074000          -0.80780000           0.85013000         
H                    -1.59249000          -1.85723000          -0.40498000         
H                     0.33814000           1.97762000          -0.38403000         
H                    -2.49173000          -0.37998000          -0.85532000         
16
Image 16 energy:-0.06877 
C                     2.08290000          -0.02803000          -0.03959000         
C                     0.75703000          -0.69469000           0.36737000         
C                    -0.49502000          -0.00927000          -0.11168000         
C                    -0.61254000           1.48538000          -0.11210000         
C                    -1.76865000          -0.80037000          -0.13284000         
H                     2.93761000          -0.67462000           0.21408000         
H                     2.22831000           0.93763000           0.48522000         
H                     2.10869000           0.16718000          -1.12384000         
H                     0.74787000          -1.73671000           0.00282000         
H                     0.73914000          -0.78356000           1.47722000         
H                    -0.91579000           1.88155000           0.88411000         
H                    -1.38464000           1.82229000          -0.82562000         
H                    -2.28639000          -0.78756000           0.84603000         
H                    -1.59246000          -1.85595000          -0.37971000         
H                     0.33299000           1.98490000          -0.37519000         
H                    -2.48323000          -0.39567000          -0.86171000         
16
Image 17 energy:-0.06862 
C                     2.08615000          -0.02896000          -0.03800000         
C                     0.75820000          -0.69546000           0.36484000         
C                    -0.49443000          -0.00897000          -0.11262000         
C                    -0.61534000           1.48554000          -0.10991000         
C                    -1.76945000          -0.79879000          -0.13186000         
H                     2.93861000          -0.65867000           0.23512000         
H                     2.21918000           0.93503000           0.44212000         
H                     2.12116000           0.14572000          -1.12448000         
H                     0.74831000          -1.73656000          -0.00185000         
H                     0.73907000          -0.78826000           1.47499000         
H                    -0.94553000           1.87565000           0.87962000         
H                    -1.37244000           1.82199000          -0.84088000         
H                    -2.28681000          -0.78036000           0.85938000         
H                    -1.58978000          -1.86264000          -0.37885000         
H                     0.33494000           1.99092000          -0.35057000         
H                    -2.49159000          -0.38752000          -0.86659000         
16
Image 18 energy:-0.06867 
C                     2.08586000          -0.02922000          -0.04083000         
C                     0.75892000          -0.69505000           0.36191000         
C                    -0.49388000          -0.00831000          -0.11394000         
C                    -0.61816000           1.48570000          -0.10813000         
C                    -1.76887000          -0.79796000          -0.12944000         
H                     2.94608000          -0.67312000           0.23896000         
H                     2.22604000           0.94455000           0.46105000         
H                     2.13150000           0.13055000          -1.11986000         
H                     0.75010000          -1.73542000          -0.00698000         
H                     0.74228000          -0.79064000           1.47134000         
H                    -0.97199000           1.86876000           0.87004000         
H                    -1.35360000           1.82411000          -0.85181000         
H                    -2.29885000          -0.75756000           0.84878000         
H                    -1.59125000          -1.86428000          -0.34922000         
H                     0.33086000           1.99245000          -0.32065000         
H                    -2.48096000          -0.40559000          -0.87933000         
16
Image 19 energy:-0.06853 
C                     2.09152000          -0.03328000          -0.04016000         
C                     0.75952000          -0.69525000           0.35841000         
C                    -0.49397000          -0.00766000          -0.11503000         
C                    -0.62105000           1.48634000          -0.10555000         
C                    -1.76914000          -0.79705000          -0.12805000         
H                     2.93105000          -0.64796000           0.27013000         
H                     2.21440000           0.95048000           0.44083000         
H                     2.13994000           0.12140000          -1.13946000         
H                     0.75031000          -1.73467000          -0.01435000         
H                     0.73932000          -0.79593000           1.46691000         
H                    -0.98878000           1.86457000           0.87946000         
H                    -1.35741000           1.82678000          -0.86049000         
H                    -2.30656000          -0.73762000           0.83909000         
H                    -1.59405000          -1.86389000          -0.32582000         
H                     0.33612000           1.99555000          -0.30657000         
H                    -2.46987000          -0.42019000          -0.88800000         
16
Image 20 energy:-0.06864 
C                     2.09027000          -0.03153000          -0.03905000         
C                     0.76076000          -0.69643000           0.35279000         
C                    -0.49312000          -0.00766000          -0.11634000         
C                    -0.62307000           1.48611000          -0.10346000         
C                    -1.76966000          -0.79550000          -0.12524000         
H                     2.94852000          -0.65702000           0.28367000         
H                     2.20446000           0.95722000           0.41836000         
H                     2.16270000           0.09363000          -1.12606000         
H                     0.75164000          -1.73467000          -0.02112000         
H                     0.74066000          -0.79774000           1.46265000         
H                    -1.02069000           1.85904000           0.86769000         
H                    -1.33597000           1.82886000          -0.87601000         
H                    -2.30768000          -0.72482000           0.84417000         
H                    -1.59355000          -1.86588000          -0.31368000         
H                     0.33521000           2.00105000          -0.27656000         
H                    -2.47083000          -0.42365000          -0.89041000         
16
Image 21 energy:-0.06854 
C                     2.09527000          -0.03495000          -0.04021000         
C                     0.76151000          -0.69716000           0.34895000         
C                    -0.49286000          -0.00670000          -0.11796000         
C                    -0.62698000           1.48697000          -0.10124000         
C                    -1.77002000          -0.79433000          -0.12268000         
H                     2.93621000          -0.63715000           0.31583000         
H                     2.19700000           0.96731000           0.41165000         
H                     2.17909000           0.07580000          -1.13658000         
H                     0.75267000          -1.73451000          -0.02989000         
H                     0.74229000          -0.80257000           1.45759000         
H                    -1.04805000           1.85205000           0.85532000         
H                    -1.31547000           1.83061000          -0.88446000         
H                    -2.31246000          -0.70885000           0.84724000         
H                    -1.59278000          -1.86956000          -0.29710000         
H                     0.32738000           2.00572000          -0.24749000         
H                    -2.47202000          -0.42912000          -0.89762000         
16
Image 22 energy:-0.06850 
C                     2.09721000          -0.03536000          -0.03881000         
C                     0.76234000          -0.69840000           0.34362000         
C                    -0.49293000          -0.00573000          -0.12007000         
C                    -0.62997000           1.48764000          -0.09835000         
C                    -1.77006000          -0.79301000          -0.12050000         
H                     2.94541000          -0.62813000           0.34145000         
H                     2.18936000           0.97473000           0.38231000         
H                     2.20259000           0.04263000          -1.12809000         
H                     0.75446000          -1.73302000          -0.04183000         
H                     0.73952000          -0.81234000           1.45079000         
H                    -1.06176000           1.84712000           0.86504000         
H                    -1.32385000           1.83471000          -0.88950000         
H                    -2.32200000          -0.68509000           0.83636000         