18
Image 1 energy:-0.00931 
C                     0.90260000           1.32180000           0.62831000         
C                     0.43522000          -0.00033000           0.00020000         
C                     0.90238000          -0.11701000          -1.45888000         
C                     0.90375000          -1.20514000           0.83075000         
C                    -3.07828000           0.00064000          -0.00031000         
H                     0.53782000           2.18743000           0.05442000         
H                     2.00348000           1.37554000           0.65308000         
H                    -0.67300000          -0.00118000          -0.00004000         
H                     0.53870000          -1.04728000          -1.92159000         
H                     0.53803000           0.72748000          -2.06372000         
H                     2.00469000          -1.25328000           0.86338000         
H                     0.54045000          -1.14061000           1.86784000         
H                    -3.11670000          -0.97760000          -0.47227000         
H                    -3.12160000           0.08127000           1.08305000         
H                    -3.11567000           0.89854000          -0.61194000         
H                     0.53894000           1.42301000           1.66233000         
H                     2.00325000          -0.12129000          -1.51772000         
H                     0.53970000          -2.15154000           0.40228000         
18
Image 2 energy:-0.00930 
C                     0.89691000           1.32164000           0.62833000         
C                     0.43051000          -0.00044000          -0.00014000         
C                     0.89820000          -0.11684000          -1.45909000         
C                     0.89849000          -1.20527000           0.83048000         
C                    -3.05881000           0.00086000           0.00043000         
H                     0.53260000           2.18728000           0.05435000         
H                     1.99755000           1.37562000           0.65340000         
H                    -0.67707000          -0.00070000           0.00052000         
H                     0.53463000          -1.04715000          -1.92166000         
H                     0.53358000           0.72758000          -2.06378000         
H                     1.99919000          -1.25366000           0.86363000         
H                     0.53518000          -1.14101000           1.86752000         
H                    -3.09872000          -0.97895000          -0.47079000         
H                    -3.10363000           0.08275000           1.08320000         
H                    -3.09801000           0.89845000          -0.61214000         
H                     0.53357000           1.42281000           1.66239000         
H                     1.99895000          -0.12087000          -1.51824000         
H                     0.53471000          -2.15142000           0.40154000         
18
Image 3 energy:-0.00927 
C                     0.89341000           1.32176000           0.62839000         
C                     0.42551000          -0.00007000           0.00048000         
C                     0.89209000          -0.11672000          -1.45852000         
C                     0.89386000          -1.20528000           0.83017000         
C                    -3.04003000           0.00025000          -0.00055000         
H                     0.53092000           2.18753000           0.05331000         
H                     1.99446000           1.37379000           0.65403000         
H                    -0.68252000          -0.00108000          -0.00035000         
H                     0.52989000          -1.04763000          -1.92084000         
H                     0.52750000           0.72725000          -2.06379000         
H                     1.99483000          -1.25132000           0.86438000         
H                     0.52906000          -1.14335000           1.86689000         
H                    -3.08518000          -0.97795000          -0.46874000         
H                    -3.08397000           0.08397000           1.08442000         
H                    -3.08192000           0.89679000          -0.61355000         
H                     0.52929000           1.42433000           1.66215000         
H                     1.99281000          -0.11999000          -1.51675000         
H                     0.53283000          -2.15158000           0.39916000         
18
Image 4 energy:-0.00923 
C                     0.88722000           1.32163000           0.62826000         
C                     0.42218000          -0.00057000          -0.00059000         
C                     0.88950000          -0.11681000          -1.45944000         
C                     0.88896000          -1.20559000           0.83013000         
C                    -3.02298000           0.00156000           0.00217000         
H                     0.52328000           2.18702000           0.05353000         
H                     1.98803000           1.37603000           0.65533000         
H                    -0.68624000           0.00103000           0.00327000         
H                     0.52755000          -1.04753000          -1.92255000         
H                     0.52539000           0.72759000          -2.06453000         
H                     1.98994000          -1.25295000           0.86556000         
H                     0.52332000          -1.14186000           1.86642000         
H                    -3.06233000          -0.98041000          -0.47090000         
H                    -3.07559000           0.08319000           1.07944000         
H                    -3.06522000           0.89478000          -0.61595000         
H                     0.52153000           1.42249000           1.66158000         
H                     1.99064000          -0.12010000          -1.51753000         
H                     0.52702000          -2.15202000           0.40004000         
18
Image 5 energy:-0.00922 
C                     0.88290000           1.32211000           0.62881000         
C                     0.41925000          -0.00040000          -0.00033000         
C                     0.88461000          -0.11661000          -1.45973000         
C                     0.88431000          -1.20574000           0.83077000         
C                    -3.00609000           0.00033000          -0.00006000         
H                     0.51732000           2.18707000           0.05439000         
H                     1.98354000           1.37857000           0.65587000         
H                    -0.68862000          -0.00244000          -0.00340000         
H                     0.51975000          -1.04675000          -1.92180000         
H                     0.51857000           0.72793000          -2.06352000         
H                     1.98500000          -1.25611000           0.86648000         
H                     0.51834000          -1.14091000           1.86691000         
H                    -3.05872000          -0.97779000          -0.46544000         
H                    -3.04149000           0.08617000           1.08609000         
H                    -3.04934000           0.89780000          -0.61109000         
H                     0.51707000           1.42228000           1.66218000         
H                     1.98534000          -0.12076000          -1.52130000         
H                     0.51957000          -2.15130000           0.40101000         
18
Image 6 energy:-0.00918 
C                     0.87892000           1.32251000           0.62891000         
C                     0.41550000          -0.00012000           0.00016000         
C                     0.87837000          -0.11664000          -1.45984000         
C                     0.87935000          -1.20607000           0.83076000         
C                    -2.98652000           0.00035000           0.00017000         
H                     0.51237000           2.18703000           0.05443000         
H                     1.97955000           1.38003000           0.65586000         
H                    -0.69265000          -0.00001000           0.00136000         
H                     0.51232000          -1.04666000          -1.92122000         
H                     0.51169000           0.72800000          -2.06311000         
H                     1.98001000          -1.25809000           0.86648000         
H                     0.51339000          -1.14114000           1.86695000         
H                    -3.03398000          -0.97995000          -0.46930000         
H                    -3.03713000           0.08416000           1.08225000         
H                    -3.03215000           0.89599000          -0.61524000         
H                     0.51292000           1.42260000           1.66227000         
H                     1.97897000          -0.12133000          -1.52343000         
H                     0.51326000          -2.15099000           0.40074000         
18
Image 7 energy:-0.00913 
C                     0.87347000           1.32261000           0.62903000         
C                     0.41120000          -0.00021000           0.00005000         
C                     0.87344000          -0.11664000          -1.46006000         
C                     0.87429000          -1.20623000           0.83089000         
C                    -2.96623000           0.00043000           0.00005000         
H                     0.50673000           2.18697000           0.05445000         
H                     1.97402000           1.38104000           0.65660000         
H                    -0.69659000          -0.00040000          -0.00001000         
H                     0.50712000          -1.04664000          -1.92123000         
H                     0.50646000           0.72801000          -2.06310000         
H                     1.97485000          -1.25898000           0.86737000         
H                     0.50771000          -1.14100000           1.86680000         
H                    -3.02067000          -0.97947000          -0.46837000         
H                    -3.01856000           0.08487000           1.08323000         
H                    -3.01775000           0.89580000          -0.61376000         
H                     0.50701000           1.42238000           1.66224000         
H                     1.97398000          -0.12134000          -1.52451000         
H                     0.50789000          -2.15091000           0.40068000         
18
Image 8 energy:-0.00906 
C                     0.86865000           1.32268000           0.62907000         
C                     0.40670000          -0.00003000           0.00000000         
C                     0.86838000          -0.11661000          -1.46011000         
C                     0.86882000          -1.20619000           0.83083000         
C                    -2.94639000           0.00002000           0.00029000         
H                     0.50162000           2.18699000           0.05461000         
H                     1.96919000           1.38138000           0.65651000         
H                    -0.70157000          -0.00062000           0.00053000         
H                     0.50225000          -1.04679000          -1.92099000         
H                     0.50118000           0.72793000          -2.06315000         
H                     1.96934000          -1.25900000           0.86732000         
H                     0.50253000          -1.14099000           1.86681000         
H                    -3.00428000          -0.97891000          -0.46812000         
H                    -3.00325000           0.08459000           1.08244000         
H                    -2.99873000           0.89690000          -0.61494000         
H                     0.50240000           1.42210000           1.66235000         
H                     1.96890000          -0.12118000          -1.52482000         
H                     0.50270000          -2.15090000           0.40053000         
18
Image 9 energy:-0.00897 
C                     0.86317000           1.32266000           0.62911000         
C                     0.40262000          -0.00053000           0.00026000         
C                     0.86306000          -0.11663000          -1.46018000         
C                     0.86468000          -1.20660000           0.83109000         
C                    -2.92758000           0.00141000          -0.00045000         
H                     0.49582000           2.18653000           0.05424000         
H                     1.96376000           1.38198000           0.65645000         
H                    -0.70582000           0.00130000          -0.00055000         
H                     0.49695000          -1.04671000          -1.92130000         
H                     0.49554000           0.72820000          -2.06258000         
H                     1.96544000          -1.25956000           0.86774000         
H                     0.49836000          -1.14120000           1.86708000         
H                    -2.98334000          -0.98078000          -0.46765000         
H                    -2.98345000           0.08340000           1.08331000         
H                    -2.98756000           0.89295000          -0.61248000         
H                     0.49694000           1.42225000           1.66239000         
H                     1.96366000          -0.12086000          -1.52543000         
H                     0.49856000          -2.15130000           0.40070000         
18
Image 10 energy:-0.00887 
C                     0.85882000           1.32331000           0.62922000         
C                     0.39951000          -0.00002000           0.00001000         
C                     0.85850000          -0.11645000          -1.46075000         
C                     0.85912000          -1.20663000           0.83113000         
C                    -2.91038000          -0.00082000           0.00069000         
H                     0.49096000           2.18690000           0.05416000         
H                     1.95930000           1.38404000           0.65800000         
H                    -0.70888000          -0.00419000           0.00234000         
H                     0.49064000          -1.04628000          -1.92106000         
H                     0.49044000           0.72848000          -2.06277000         
H                     1.95956000          -1.26202000           0.86928000         
H                     0.49111000          -1.14054000           1.86650000         
H                    -2.97130000          -0.97585000          -0.46943000         
H                    -2.96890000           0.08762000           1.08066000         
H                    -2.95476000           0.89871000          -0.61576000         
H                     0.49106000           1.42230000           1.66206000         
H                     1.95895000          -0.12165000          -1.52798000         
H                     0.49110000          -2.15041000           0.40031000         
18
Image 11 energy:-0.00879 
C                     0.85405000           1.32350000           0.62953000         
C                     0.39631000           0.00005000          -0.00002000         
C                     0.85361000          -0.11668000          -1.46106000         
C                     0.85367000          -1.20704000           0.83137000         
C                    -2.89189000           0.00046000           0.00004000         
H                     0.48508000           2.18652000           0.05430000         
H                     1.95437000           1.38604000           0.65934000         
H                    -0.71282000           0.00214000          -0.00088000         
H                     0.48447000          -1.04638000          -1.92066000         
H                     0.48448000           0.72822000          -2.06249000         
H                     1.95398000          -1.26419000           0.87067000         
H                     0.48474000          -1.14049000           1.86640000         
H                    -2.94375000          -0.98092000          -0.46707000         
H                    -2.94488000           0.08285000           1.08328000         
H                    -2.95214000           0.89348000          -0.61304000         
H                     0.48500000           1.42186000           1.66198000         
H                     1.95391000          -0.12223000          -1.53037000         
H                     0.48467000          -2.15033000           0.40021000         
18
Image 12 energy:-0.00868 
C                     0.84865000           1.32388000           0.62964000         
C                     0.39255000          -0.00003000           0.00003000         
C                     0.84827000          -0.11661000          -1.46145000         
C                     0.84876000          -1.20733000           0.83157000         
C                    -2.87226000           0.00000000           0.00027000         
H                     0.47858000           2.18630000           0.05419000         
H                     1.94879000           1.38820000           0.66012000         
H                    -0.71574000          -0.00067000           0.00057000         
H                     0.47825000          -1.04624000          -1.92052000         
H                     0.47800000           0.72829000          -2.06223000         
H                     1.94889000          -1.26593000           0.87189000         
H                     0.47877000          -1.14035000           1.86622000         
H                    -2.93002000          -0.97892000          -0.46820000         
H                    -2.92962000           0.08498000           1.08234000         
H                    -2.92713000           0.89587000          -0.61432000         
H                     0.47872000           1.42176000           1.66184000         
H                     1.94839000          -0.12211000          -1.53266000         
H                     0.47873000          -2.15011000           0.40014000         
18
Image 13 energy:-0.00854 
C                     0.84337000           1.32417000           0.62981000         
C                     0.38910000          -0.00001000           0.00002000         
C                     0.84295000          -0.11665000          -1.46178000         
C                     0.84332000          -1.20763000           0.83175000         
C                    -2.85207000           0.00015000           0.00019000         
H                     0.47259000           2.18613000           0.05413000         
H                     1.94347000           1.38998000           0.66107000         
H                    -0.72045000           0.00024000           0.00011000         
H                     0.47215000          -1.04623000          -1.92031000         
H                     0.47197000           0.72830000          -2.06204000         
H                     1.94342000          -1.26766000           0.87304000         
H                     0.47262000          -1.14020000           1.86611000         
H                    -2.91232000          -0.97929000          -0.46770000         
H                    -2.91243000           0.08429000           1.08234000         
H                    -2.91305000           0.89484000          -0.61375000         
H                     0.47265000           1.42155000           1.66178000         
H                     1.94303000          -0.12235000          -1.53468000         
H                     0.47254000          -2.14996000           0.40000000         
18
Image 14 energy:-0.00838 
C                     0.83806000           1.32455000           0.63000000         
C                     0.38549000          -0.00001000           0.00002000         
C                     0.83764000          -0.11667000          -1.46220000         
C                     0.83805000          -1.20798000           0.83198000         
C                    -2.83208000           0.00010000           0.00022000         
H                     0.46620000           2.18590000           0.05407000         
H                     1.93798000           1.39220000           0.66212000         
H                    -0.72327000          -0.00006000           0.00027000         
H                     0.46575000          -1.04616000          -1.92009000         
H                     0.46556000           0.72830000          -2.06179000         
H                     1.93796000          -1.26968000           0.87441000         
H                     0.46626000          -1.14003000           1.86594000         
H                    -2.89548000          -0.97905000          -0.46779000         
H                    -2.89544000           0.08452000           1.08219000         
H                    -2.89502000           0.89506000          -0.61388000         
H                     0.46626000           1.42136000           1.66164000         
H                     1.93753000          -0.12251000          -1.53715000         
H                     0.46617000          -2.14974000           0.39989000         
18
Image 15 energy:-0.00821 
C                     0.83268000           1.32489000           0.63017000         
C                     0.38229000          -0.00001000           0.00002000         
C                     0.83224000          -0.11669000          -1.46259000         
C                     0.83264000          -1.20830000           0.83219000         
C                    -2.81185000           0.00011000           0.00021000         
H                     0.46000000           2.18570000           0.05396000         
H                     1.93254000           1.39427000           0.66314000         
H                    -0.72786000           0.00005000           0.00022000         
H                     0.45952000          -1.04614000          -1.91986000         
H                     0.45933000           0.72834000          -2.06156000         
H                     1.93250000          -1.27160000           0.87570000         
H                     0.46003000          -1.13984000           1.86582000         
H                    -2.87922000          -0.97884000          -0.46760000         
H                    -2.87924000           0.08443000           1.08191000         
H                    -2.87917000           0.89470000          -0.61366000         
H                     0.46003000           1.42114000           1.66156000         
H                     1.93208000          -0.12269000          -1.53945000         
H                     0.45991000          -2.14956000           0.39974000         
18
Image 16 energy:-0.00802 
C                     0.82738000           1.32530000           0.63037000         
C                     0.37878000          -0.00001000           0.00002000         
C                     0.82693000          -0.11672000          -1.46304000         
C                     0.82733000          -1.20868000           0.83245000         
C                    -2.79176000           0.00010000           0.00021000         
H                     0.45353000           2.18545000           0.05390000         
H                     1.92703000           1.39666000           0.66430000         
H                    -0.73058000           0.00002000           0.00025000         
H                     0.45303000          -1.04607000          -1.91961000         
H                     0.45283000           0.72832000          -2.06129000         
H                     1.92698000          -1.27380000           0.87719000         
H                     0.45355000          -1.13966000           1.86563000         
H                    -2.86252000          -0.97869000          -0.46755000         
H                    -2.86252000           0.08445000           1.08175000         
H                    -2.86232000           0.89461000          -0.61361000         
H                     0.45354000           1.42092000           1.66141000         
H                     1.92655000          -0.12289000          -1.54210000         
H                     0.45341000          -2.14932000           0.39963000         
18
Image 17 energy:-0.00781 
C                     0.82194000           1.32568000           0.63056000         
C                     0.37584000          -0.00000000           0.00002000         
C                     0.82149000          -0.11675000          -1.46346000         
C                     0.82189000          -1.20903000           0.83268000         
C                    -2.77143000           0.00010000           0.00021000         
H                     0.44724000           2.18523000           0.05377000         
H                     1.92155000           1.39891000           0.66540000         
H                    -0.73537000           0.00004000           0.00024000         
H                     0.44672000          -1.04606000          -1.91936000         
H                     0.44652000           0.72837000          -2.06104000         
H                     1.92148000          -1.27589000           0.87860000         
H                     0.44725000          -1.13944000           1.86550000         
H                    -2.84700000          -0.97843000          -0.46740000         
H                    -2.84702000           0.08442000           1.08144000         
H                    -2.84687000           0.89433000          -0.61343000         
H                     0.44722000           1.42068000           1.66132000         
H                     1.92106000          -0.12309000          -1.54461000         
H                     0.44708000          -2.14912000           0.39946000         
18
Image 18 energy:-0.00758 
C                     0.81665000           1.32614000           0.63079000         
C                     0.37243000          -0.00000000           0.00002000         
C                     0.81619000          -0.11678000          -1.46397000         
C                     0.81658000          -1.20945000           0.83296000         
C                    -2.75118000           0.00010000           0.00021000         
H                     0.44063000           2.18495000           0.05370000         
H                     1.91599000           1.40156000           0.66669000         
H                    -0.73778000           0.00005000           0.00024000         
H                     0.44009000          -1.04598000          -1.91908000         
H                     0.43989000           0.72835000          -2.06075000         
H                     1.91592000          -1.27833000           0.88026000         
H                     0.44062000          -1.13923000           1.86529000         
H                    -2.83116000          -0.97822000          -0.46729000         
H                    -2.83118000           0.08441000           1.08121000         
H                    -2.83101000           0.89414000          -0.61330000         
H                     0.44058000           1.42045000           1.66115000         
H                     1.91550000          -0.12331000          -1.54756000         
H                     0.44044000          -2.14885000           0.39934000         
18
Image 19 energy:-0.00733 
C                     0.81116000           1.32655000           0.63099000         
C                     0.36986000           0.00000000           0.00002000         
C                     0.81069000          -0.11681000          -1.46443000         
C                     0.81108000          -1.20983000           0.83322000         
C                    -2.73067000           0.00010000           0.00021000         
H                     0.43428000           2.18472000           0.05355000         
H                     1.91048000           1.40404000           0.66789000         
H                    -0.74304000           0.00006000           0.00024000         
H                     0.43372000          -1.04599000          -1.91880000         
H                     0.43352000           0.72841000          -2.06048000         
H                     1.91040000          -1.28061000           0.88181000         
H                     0.43425000          -1.13898000           1.86517000         
H                    -2.81687000          -0.97789000          -0.46713000         
H                    -2.81691000           0.08438000           1.08084000         
H                    -2.81674000           0.89382000          -0.61310000         
H                     0.43421000           1.42018000           1.66107000         
H                     1.90999000          -0.12352000          -1.55031000         
H                     0.43405000          -2.14865000           0.39915000         
18
Image 20 energy:-0.00706 
C                     0.80588000           1.32706000           0.63124000         
C                     0.36653000           0.00000000           0.00002000         
C                     0.80541000          -0.11686000          -1.46500000         
C                     0.80579000          -1.21031000           0.83354000         
C                    -2.71032000           0.00010000           0.00021000         
H                     0.42750000           2.18439000           0.05346000         
H                     1.90486000           1.40698000           0.66931000         
H                    -0.74452000           0.00006000           0.00023000         