12
Image 1 energy:-0.01882 
C                     1.29918000          -0.32007000           0.09140000         
C                     0.00004000           0.19624000          -0.43338000         
C                    -1.29906000          -0.32015000           0.09141000         
H                    -0.00060000           3.34811000           1.26549000         
H                    -0.00164000           3.98809000           1.64374000         
H                     2.14914000           0.27452000          -0.25729000         
H                     1.48618000          -1.36437000          -0.21994000         
H                     1.31604000          -0.32518000           1.19066000         
H                    -0.00028000           0.78044000          -1.35031000         
H                    -2.14845000           0.27807000          -0.25331000         
H                    -1.48820000          -1.36183000          -0.22587000         
H                    -1.31411000          -0.33135000           1.19048000         
12
Image 2 energy:-0.01881 
C                     1.29916000          -0.32227000           0.09042000         
C                    -0.00004000           0.19383000          -0.43513000         
C                    -1.29903000          -0.32223000           0.09077000         
H                    -0.00039000           3.39488000           1.28771000         
H                    -0.00148000           4.03620000           1.66331000         
H                     2.14927000           0.27272000          -0.25509000         
H                     1.48896000          -1.36714000          -0.22017000         
H                     1.31395000          -0.32729000           1.18982000         
H                    -0.00097000           0.77780000          -1.35209000         
H                    -2.14863000           0.27540000          -0.25384000         
H                    -1.48842000          -1.36401000          -0.22557000         
H                    -1.31341000          -0.33254000           1.18967000         
12
Image 3 energy:-0.01881 
C                     1.29920000          -0.32014000           0.09137000         
C                     0.00020000           0.19603000          -0.43237000         
C                    -1.29909000          -0.32045000           0.09075000         
H                    -0.00106000           3.35148000           1.26856000         
H                    -0.00206000           3.99221000           1.64681000         
H                     2.14894000           0.27320000          -0.26366000         
H                     1.48069000          -1.36301000          -0.22079000         
H                     1.31984000          -0.32502000           1.18993000         
H                     0.00121000           0.78043000          -1.34948000         
H                    -2.14828000           0.27749000          -0.25578000         
H                    -1.48712000          -1.36268000          -0.22590000         
H                    -1.31583000          -0.33086000           1.19004000         
12
Image 4 energy:-0.01882 
C                     1.29922000          -0.31825000           0.09194000         
C                    -0.00016000           0.19825000          -0.43287000         
C                    -1.29914000          -0.31822000           0.09220000         
H                     0.00000000           3.30778000           1.24817000         
H                    -0.00036000           3.94474000           1.63051000         
H                     2.14881000           0.27879000          -0.25408000         
H                     1.48985000          -1.36351000          -0.21895000         
H                     1.31423000          -0.32282000           1.19224000         
H                    -0.00124000           0.78289000          -1.34939000         
H                    -2.14863000           0.28031000          -0.25187000         
H                    -1.48801000          -1.35937000          -0.22636000         
H                    -1.31375000          -0.33101000           1.19120000         
12
Image 5 energy:-0.01882 
C                     1.29906000          -0.31600000           0.09303000         
C                     0.00026000           0.20109000          -0.43029000         
C                    -1.29891000          -0.31657000           0.09267000         
H                    -0.00134000           3.26256000           1.22486000         
H                    -0.00232000           3.89994000           1.60896000         
H                     2.14968000           0.27761000          -0.25395000         
H                     1.48288000          -1.35541000          -0.22517000         
H                     1.31633000          -0.32867000           1.18970000         
H                     0.00090000           0.78589000          -1.34709000         
H                    -2.14792000           0.28349000          -0.25093000         
H                    -1.48907000          -1.35825000          -0.22653000         
H                    -1.31399000          -0.32966000           1.19245000         
12
Image 6 energy:-0.01881 
C                     1.29936000          -0.31398000           0.09391000         
C                    -0.00022000           0.20297000          -0.42950000         
C                    -1.29931000          -0.31455000           0.09311000         
H                     0.00027000           3.22025000           1.20574000         
H                     0.00058000           3.85361000           1.59577000         
H                     2.14800000           0.28189000          -0.26183000         
H                     1.48459000          -1.36234000          -0.21401000         
H                     1.32009000          -0.31391000           1.19624000         
H                    -0.00088000           0.78799000          -1.34601000         
H                    -2.14876000           0.28584000          -0.24602000         
H                    -1.48884000          -1.35101000          -0.23268000         
H                    -1.31312000          -0.33521000           1.18993000         
12
Image 7 energy:-0.01883 
C                     1.29925000          -0.31297000           0.09398000         
C                     0.00015000           0.20554000          -0.42857000         
C                    -1.29918000          -0.31268000           0.09457000         
H                    -0.00088000           3.18378000           1.18647000         
H                    -0.00149000           3.81651000           1.57590000         
H                     2.14875000           0.28922000          -0.24159000         
H                     1.49167000          -1.35020000          -0.23277000         
H                     1.31107000          -0.33493000           1.19170000         
H                     0.00048000           0.79058000          -1.34482000         
H                    -2.14826000           0.28624000          -0.25213000         
H                    -1.48828000          -1.35760000          -0.22078000         
H                    -1.31573000          -0.32137000           1.19582000         
12
Image 8 energy:-0.01883 
C                     1.29894000          -0.31105000           0.09523000         
C                    -0.00005000           0.20850000          -0.42574000         
C                    -1.29888000          -0.31135000           0.09491000         
H                    -0.00026000           3.14282000           1.16318000         
H                    -0.00030000           3.77712000           1.55272000         
H                     2.14859000           0.28802000          -0.24721000         
H                     1.48617000          -1.35008000          -0.22910000         
H                     1.31476000          -0.32955000           1.19366000         
H                    -0.00023000           0.79369000          -1.34259000         
H                    -2.14870000           0.28977000          -0.24143000         
H                    -1.48810000          -1.34643000          -0.23572000         
H                    -1.31208000          -0.33713000           1.19166000         
12
Image 9 energy:-0.01884 
C                     1.29963000          -0.30934000           0.09545000         
C                     0.00004000           0.21100000          -0.42479000         
C                    -1.29957000          -0.30937000           0.09558000         
H                    -0.00051000           3.09852000           1.14333000         
H                    -0.00075000           3.72857000           1.53894000         
H                     2.14792000           0.29416000          -0.24493000         
H                     1.49055000          -1.34969000          -0.23030000         
H                     1.31513000          -0.32888000           1.19576000         
H                     0.00008000           0.79593000          -1.34112000         
H                    -2.14779000           0.29337000          -0.24729000         
H                    -1.48966000          -1.35140000          -0.22770000         
H                    -1.31615000          -0.32602000           1.19667000         
12
Image 10 energy:-0.01884 
C                     1.29905000          -0.30795000           0.09653000         
C                    -0.00000000           0.21411000          -0.42171000         
C                    -1.29899000          -0.30812000           0.09644000         
H                    -0.00039000           3.06141000           1.11917000         
H                    -0.00050000           3.69529000           1.50644000         
H                     2.14823000           0.29755000          -0.23495000         
H                     1.49085000          -1.34177000          -0.24048000         
H                     1.31116000          -0.34037000           1.19396000         
H                    -0.00005000           0.79931000          -1.33849000         
H                    -2.14823000           0.29789000          -0.23356000         
H                    -1.49130000          -1.34106000          -0.24201000         
H                    -1.31046000          -0.34219000           1.19351000         
12
Image 11 energy:-0.01885 
C                     1.29940000          -0.30628000           0.09704000         
C                     0.00001000           0.21757000          -0.42016000         
C                    -1.29934000          -0.30638000           0.09705000         
H                    -0.00041000           3.01352000           1.09541000         
H                    -0.00054000           3.64561000           1.49109000         
H                     2.14790000           0.30026000          -0.23624000         
H                     1.49121000          -1.34234000          -0.23903000         
H                     1.31303000          -0.33667000           1.19634000         
H                    -0.00000000           0.80285000          -1.33686000         
H                    -2.14789000           0.29993000          -0.23665000         
H                    -1.49090000          -1.34270000          -0.23861000         
H                    -1.31316000          -0.33630000           1.19645000         
12
Image 12 energy:-0.01885 
C                     1.29933000          -0.30444000           0.09784000         
C                     0.00001000           0.22067000          -0.41697000         
C                    -1.29927000          -0.30455000           0.09783000         
H                    -0.00040000           2.96884000           1.07051000         
H                    -0.00053000           3.60102000           1.45875000         
H                     2.14778000           0.30539000          -0.22885000         
H                     1.49276000          -1.33625000          -0.24734000         
H                     1.31129000          -0.34520000           1.19570000         
H                    -0.00002000           0.80638000          -1.33318000         
H                    -2.14777000           0.30523000          -0.22878000         
H                    -1.49265000          -1.33631000          -0.24745000         
H                    -1.31120000          -0.34543000           1.19566000         
12
Image 13 energy:-0.01884 
C                     1.29942000          -0.30278000           0.09871000         
C                     0.00001000           0.22435000          -0.41498000         
C                    -1.29937000          -0.30289000           0.09870000         
H                    -0.00040000           2.91808000           1.04242000         
H                    -0.00053000           3.55322000           1.43538000         
H                     2.14739000           0.30980000          -0.22441000         
H                     1.49467000          -1.33330000          -0.25086000         
H                     1.31005000          -0.34766000           1.19707000         
H                    -0.00001000           0.81169000          -1.33084000         
H                    -2.14738000           0.30962000          -0.22443000         
H                    -1.49453000          -1.33344000          -0.25086000         
H                    -1.31000000          -0.34775000           1.19707000         
12
Image 14 energy:-0.01883 
C                     1.29963000          -0.30058000           0.09953000         
C                     0.00001000           0.22673000          -0.41231000         
C                    -1.29957000          -0.30069000           0.09952000         
H                    -0.00039000           2.87229000           1.01862000         
H                    -0.00053000           3.50507000           1.40470000         
H                     2.14692000           0.31600000          -0.21786000         
H                     1.49755000          -1.32767000          -0.25786000         
H                     1.30902000          -0.35450000           1.19697000         
H                    -0.00002000           0.81499000          -1.32647000         
H                    -2.14691000           0.31585000          -0.21781000         
H                    -1.49743000          -1.32776000          -0.25793000         
H                    -1.30894000          -0.35468000           1.19695000         
12
Image 15 energy:-0.01882 
C                     1.29976000          -0.29881000           0.10053000         
C                     0.00001000           0.22968000          -0.41061000         
C                    -1.29971000          -0.29892000           0.10052000         
H                    -0.00039000           2.82147000           0.99014000         
H                    -0.00052000           3.45955000           1.38059000         
H                     2.14617000           0.32182000          -0.21129000         
H                     1.50107000          -1.32337000          -0.26264000         
H                     1.30648000          -0.35864000           1.19810000         
H                    -0.00002000           0.82211000          -1.32384000         
H                    -2.14616000           0.32169000          -0.21123000         
H                    -1.50097000          -1.32347000          -0.26273000         
H                    -1.30639000          -0.35884000           1.19808000         
12
Image 16 energy:-0.01879 
C                     1.30009000          -0.29642000           0.10148000         
C                     0.00001000           0.23148000          -0.40858000         
C                    -1.30004000          -0.29653000           0.10147000         
H                    -0.00038000           2.77670000           0.96751000         
H                    -0.00052000           3.41077000           1.35065000         
H                     2.14536000           0.32910000          -0.20383000         
H                     1.50550000          -1.31709000          -0.26971000         
H                     1.30513000          -0.36562000           1.19809000         
H                    -0.00002000           0.82408000          -1.31879000         
H                    -2.14535000           0.32899000          -0.20372000         
H                    -1.50542000          -1.31716000          -0.26985000         
H                    -1.30503000          -0.36588000           1.19806000         
12
Image 17 energy:-0.01876 
C                     1.30035000          -0.29453000           0.10243000         
C                     0.00001000           0.23367000          -0.40690000         
C                    -1.30029000          -0.29465000           0.10242000         
H                    -0.00037000           2.72560000           0.93970000         
H                    -0.00051000           3.36689000           1.32645000         
H                     2.14439000           0.33550000          -0.19690000         
H                     1.50985000          -1.31251000          -0.27428000         
H                     1.30243000          -0.36971000           1.19899000         
H                    -0.00002000           0.83439000          -1.31603000         
H                    -2.14437000           0.33541000          -0.19676000         
H                    -1.50980000          -1.31257000          -0.27445000         
H                    -1.30231000          -0.37001000           1.19896000         
12
Image 18 energy:-0.01871 
C                     1.30057000          -0.29228000           0.10350000         
C                     0.00001000           0.23613000          -0.40524000         
C                    -1.30052000          -0.29240000           0.10348000         
H                    -0.00037000           2.68133000           0.91710000         
H                    -0.00052000           3.31762000           1.29747000         
H                     2.14363000           0.34207000          -0.18949000         
H                     1.51368000          -1.30615000          -0.28117000         
H                     1.30107000          -0.37654000           1.19902000         
H                    -0.00002000           0.83287000          -1.31051000         
H                    -2.14361000           0.34200000          -0.18931000         
H                    -1.51365000          -1.30618000          -0.28139000         
H                    -1.30093000          -0.37688000           1.19898000         
12
Image 19 energy:-0.01865 
C                     1.30084000          -0.29033000           0.10420000         
C                     0.00001000           0.23774000          -0.40297000         
C                    -1.30079000          -0.29045000           0.10418000         
H                    -0.00036000           2.63031000           0.89116000         
H                    -0.00051000           3.27445000           1.27195000         
H                     2.14278000           0.34780000          -0.18381000         
H                     1.51745000          -1.30222000          -0.28480000         
H                     1.29917000          -0.37952000           1.19958000         
H                    -0.00002000           0.84805000          -1.30801000         
H                    -2.14275000           0.34775000          -0.18361000         
H                    -1.51744000          -1.30224000          -0.28505000         
H                    -1.29903000          -0.37991000           1.19954000         
12
Image 20 energy:-0.01856 
C                     1.30081000          -0.28864000           0.10525000         
C                     0.00001000           0.24226000          -0.40121000         
C                    -1.30076000          -0.28876000           0.10523000         
H                    -0.00035000           2.58564000           0.86678000         
H                    -0.00051000           3.22591000           1.24531000         
H                     2.14251000           0.35199000          -0.17784000         
H                     1.51850000          -1.29676000          -0.29104000         
H                     1.29833000          -0.38568000           1.19967000         
H                    -0.00002000           0.84032000          -1.30269000         
H                    -2.14248000           0.35196000          -0.17760000         
H                    -1.51851000          -1.29676000          -0.29133000         
H                    -1.29817000          -0.38610000           1.19962000         
12
Image 21 energy:-0.01846 
C                     1.30077000          -0.28657000           0.10575000         
C                     0.00001000           0.24343000          -0.39832000         
C                    -1.30072000          -0.28669000           0.10573000         
H                    -0.00034000           2.53649000           0.84358000         
H                    -0.00050000           3.18117000           1.21772000         
H                     2.14206000           0.35625000          -0.17369000         
H                     1.52046000          -1.29368000          -0.29387000         
H                     1.29704000          -0.38762000           1.19996000         
H                    -0.00002000           0.86007000          -1.30133000         
H                    -2.14202000           0.35624000          -0.17342000         
H                    -1.52049000          -1.29367000          -0.29418000         
H                    -1.29687000          -0.38808000           1.19991000         
12
Image 22 energy:-0.01832 
C                     1.30046000          -0.28564000           0.10661000         
C                     0.00000000           0.25028000          -0.39597000         
C                    -1.30040000          -0.28576000           0.10659000         
H                    -0.00034000           2.49053000           0.81630000         
H                    -0.00050000           3.13654000           1.19474000         
H                     2.14235000           0.35779000          -0.16963000         
H                     1.51844000          -1.28980000          -0.29921000         
H                     1.29681000          -0.39278000           1.20004000         
H                    -0.00002000           0.84658000          -1.29723000         
H                    -2.14231000           0.35779000          -0.16934000         
H                    -1.51848000          -1.28977000          -0.29955000         
H                    -1.29663000          -0.39327000           1.19999000         
12
Image 23 energy:-0.01816 
C                     1.29987000          -0.28358000           0.10712000         
C                     0.00000000           0.25213000          -0.39270000         
C                    -1.29982000          -0.28371000           0.10710000         
H                    -0.00033000           2.44431000           0.79502000         
H                    -0.00050000           3.08772000           1.16484000         
H                     2.14257000           0.35987000          -0.16660000         
H                     1.51707000          -1.28721000          -0.30215000         
H                     1.29581000          -0.39475000           1.20018000         
H                    -0.00002000           0.86519000          -1.29742000         
H                    -2.14253000           0.35988000          -0.16629000         
H                    -1.51713000          -1.28717000          -0.30251000         
H                    -1.29562000          -0.39526000           1.20012000         
12
Image 24 energy:-0.01794 
C                     1.29925000          -0.28312000           0.10771000         
C                     0.00000000           0.26018000          -0.38936000         
C                    -1.29920000          -0.28325000           0.10769000         
H                    -0.00032000           2.39592000           0.76544000         
H                    -0.00049000           3.04662000           1.14329000         
H                     2.14333000           0.35945000          -0.16405000         
H                     1.51280000          -1.28495000          -0.30678000         
H                     1.29592000          -0.39892000           1.20020000         
H                    -0.00002000           0.85251000          -1.29593000         
H                    -2.14328000           0.35947000          -0.16372000         
H                    -1.51286000          -1.28490000          -0.30716000         
H                    -1.29572000          -0.39945000           1.20014000         
12
Image 25 energy:-0.01768 
C                     1.29817000          -0.28143000           0.10825000         
C                     0.00000000           0.26422000          -0.38551000         
C                    -1.29812000          -0.28156000           0.10823000         
H                    -0.00031000           2.35146000           0.74362000         
H                    -0.00049000           2.99551000           1.11198000         
H                     2.14435000           0.35892000          -0.16207000         
H                     1.50719000          -1.28258000          -0.31085000         
H                     1.29554000          -0.40207000           1.20013000         
H                    -0.00002000           0.86233000          -1.29722000         
H                    -2.14431000           0.35894000          -0.16172000         
H                    -1.50726000          -1.28252000          -0.31124000         
H                    -1.29533000          -0.40262000           1.20005000         
12
Image 26 energy:-0.01734 
C                     1.29718000          -0.28115000           0.10861000         
C                     0.00000000           0.27265000          -0.38117000         
C                    -1.29713000          -0.28127000           0.10859000         
H                    -0.00030000           2.30179000           0.71388000         
H                    -0.00048000           2.95526000           1.08873000         
H                     2.14547000           0.35689000          -0.16080000         
H                     1.50078000          -1.28141000          -0.31513000         
H                     1.29581000          -0.40561000           1.20001000         
H                    -0.00002000           0.85394000          -1.29830000         
H                    -2.14543000           0.35692000          -0.16043000         
H                    -1.50086000          -1.28134000          -0.31553000         
H                    -1.29560000          -0.40618000           1.19994000         
12
Image 27 energy:-0.01690 
C                     1.29581000          -0.27992000           0.10911000         
C                     0.00000000           0.27875000          -0.37670000         
C                    -1.29576000          -0.28005000           0.10909000         
H                    -0.00030000           2.25814000           0.69046000         
H                    -0.00048000           2.90510000           1.05824000         
H                     2.14700000           0.35435000          -0.15986000         
H                     1.49212000          -1.27935000          -0.32008000         
H                     1.29619000          -0.40960000           1.19976000         
H                    -0.00003000           0.85488000          -1.30092000         
H                    -2.14696000           0.35439000          -0.15948000         
H                    -1.49221000          -1.27928000          -0.32050000         
H                    -1.29597000          -0.41017000           1.19968000         
12
Image 28 energy:-0.01637 
C                     1.29457000          -0.27964000           0.10938000         
C                     0.00000000           0.28728000          -0.37174000         
C                    -1.29452000          -0.27976000           0.10936000         
H                    -0.00029000           2.20880000           0.66145000         
H                    -0.00048000           2.86457000           1.03353000         
H                     2.14834000           0.35122000          -0.15958000         
H                     1.48382000          -1.27839000          -0.32457000         
H                     1.29686000          -0.41312000           1.19948000         
H                    -0.00003000           0.84774000          -1.30379000         
H                    -2.14830000           0.35126000          -0.15919000         
H                    -1.48391000          -1.27831000          -0.32500000         
H                    -1.29663000          -0.41371000           1.19940000         
12
Image 29 energy:-0.01572 
C                     1.29316000          -0.27872000           0.10980000         
C                     0.00000000           0.29453000          -0.36681000         
C                    -1.29311000          -0.27884000           0.10978000         
H                    -0.00028000           2.16536000           0.63696000         
H                    -0.00047000           2.81614000           1.00442000         
H                     2.15006000           0.34769000          -0.15952000         
H                     1.47373000          -1.27653000          -0.32992000         
H                     1.29795000          -0.41732000           1.19911000         
H                    -0.00003000           0.84312000          -1.30756000         
H                    -2.15002000           0.34774000          -0.15912000         
H                    -1.47383000          -1.27644000          -0.33036000         