19
Image 1 energy:-0.03262 
C                    -1.44451000           1.30927000          -0.04401000         
C                    -0.73449000           0.04170000           0.31908000         
C                    -1.59942000          -1.17733000          -0.08167000         
C                     0.69499000          -0.02160000          -0.31902000         
C                     1.51055000           1.23050000           0.04525000         
C                     1.46277000          -1.29297000           0.07972000         
H                    -1.54894000           2.13739000           0.65419000         
H                    -1.79503000           1.45842000          -1.06898000         
H                    -0.59334000           0.01930000           1.41490000         
H                    -2.62278000          -1.06643000           0.30258000         
H                    -1.19341000          -2.11988000           0.31424000         
H                    -1.65946000          -1.26429000          -1.17677000         
H                     0.55441000          -0.03313000          -1.41601000         
H                     2.53598000           1.16230000          -0.34589000         
H                     1.57499000           1.34770000           1.13785000         
H                     1.04690000           2.13980000          -0.35927000         
H                     0.94323000          -2.20900000          -0.22699000         
H                     1.61151000          -1.33595000           1.16997000         
H                     2.45703000          -1.30272000          -0.39207000         
19
Image 2 energy:-0.03183 
C                    -1.45208000           1.31016000          -0.04112000         
C                    -0.73300000           0.04321000           0.31674000         
C                    -1.59642000          -1.17757000          -0.08088000         
C                     0.69626000          -0.02132000          -0.32140000         
C                     1.51343000           1.22883000           0.04912000         
C                     1.46137000          -1.29230000           0.07590000         
H                    -1.55889000           2.11930000           0.65316000         
H                    -1.78854000           1.46301000          -1.07803000         
H                    -0.58617000           0.02616000           1.41314000         
H                    -2.61674000          -1.06442000           0.30033000         
H                    -1.19919000          -2.12381000           0.33413000         
H                    -1.66054000          -1.27102000          -1.16720000         
H                     0.55656000          -0.02903000          -1.41934000         
H                     2.56759000           1.13059000          -0.27199000         
H                     1.50421000           1.38230000           1.14541000         
H                     1.08655000           2.13364000          -0.41523000         
H                     0.91792000          -2.20678000          -0.19770000         
H                     1.65524000          -1.32178000           1.16262000         
H                     2.43701000          -1.32175000          -0.43958000         
19
Image 3 energy:-0.03175 
C                    -1.43751000           1.30663000          -0.05211000         
C                    -0.73306000           0.04187000           0.32052000         
C                    -1.59994000          -1.17942000          -0.07651000         
C                     0.69301000          -0.01923000          -0.31959000         
C                     1.51088000           1.23063000           0.04681000         
C                     1.46010000          -1.29236000           0.07672000         
H                    -1.58677000           2.14877000           0.66870000         
H                    -1.80520000           1.45939000          -1.04994000         
H                    -0.59183000           0.02394000           1.41726000         
H                    -2.62721000          -1.06344000           0.30421000         
H                    -1.19615000          -2.11564000           0.31401000         
H                    -1.65143000          -1.26984000          -1.17615000         
H                     0.55347000          -0.02976000          -1.41751000         
H                     2.54437000           1.15107000          -0.32992000         
H                     1.56263000           1.34044000           1.14652000         
H                     1.05857000           2.14826000          -0.36237000         
H                     0.94376000          -2.20377000          -0.23831000         
H                     1.60799000          -1.34112000           1.16532000         
H                     2.45607000          -1.29755000          -0.39224000         
19
Image 4 energy:-0.03243 
C                    -1.45133000           1.31090000          -0.04192000         
C                    -0.73740000           0.04378000           0.32075000         
C                    -1.59721000          -1.17646000          -0.08330000         
C                     0.69537000          -0.02239000          -0.31763000         
C                     1.51262000           1.22987000           0.04090000         
C                     1.46283000          -1.29446000           0.08392000         
H                    -1.51062000           2.14547000           0.63192000         
H                    -1.79762000           1.44494000          -1.08031000         
H                    -0.59730000           0.02019000           1.41666000         
H                    -2.61984000          -1.07718000           0.30820000         
H                    -1.17736000          -2.12021000           0.30500000         
H                    -1.66201000          -1.25223000          -1.18216000         
H                     0.55327000          -0.03791000          -1.41189000         
H                     2.52025000           1.17835000          -0.39234000         
H                     1.62824000           1.31811000           1.13163000         
H                     1.03108000           2.14599000          -0.32086000         
H                     0.96457000          -2.20927000          -0.26790000         
H                     1.56679000          -1.35853000           1.17734000         
H                     2.47131000          -1.28414000          -0.34778000         
19
Image 5 energy:-0.03267 
C                    -1.44574000           1.31075000          -0.03501000         
C                    -0.73639000           0.03910000           0.31765000         
C                    -1.59719000          -1.17536000          -0.09620000         
C                     0.69373000          -0.02468000          -0.31861000         
C                     1.51505000           1.22889000           0.02979000         
C                     1.45944000          -1.29092000           0.10189000         
H                    -1.49283000           2.16427000           0.65101000         
H                    -1.85290000           1.44933000          -1.03542000         
H                    -0.59458000           0.01083000           1.41455000         
H                    -2.60902000          -1.09061000           0.32698000         
H                    -1.16077000          -2.12292000           0.24666000         
H                    -1.69540000          -1.22156000          -1.19299000         
H                     0.55425000          -0.04534000          -1.41558000         
H                     2.49757000           1.20669000          -0.46395000         
H                     1.68537000           1.29813000           1.11631000         
H                     0.99105000           2.14468000          -0.28519000         
H                     0.97984000          -2.21534000          -0.25404000         
H                     1.53631000          -1.35196000           1.20222000         
H                     2.48387000          -1.27135000          -0.30461000         
19
Image 6 energy:-0.03216 
C                    -1.44023000           1.31281000          -0.02206000         
C                    -0.73536000           0.03427000           0.31236000         
C                    -1.60833000          -1.17336000          -0.10491000         
C                     0.69937000          -0.03061000          -0.32455000         
C                     1.50568000           1.23343000           0.02269000         
C                     1.46783000          -1.28900000           0.11415000         
H                    -1.42731000           2.15666000           0.64970000         
H                    -1.87143000           1.45388000          -1.01385000         
H                    -0.59372000          -0.00597000           1.41260000         
H                    -2.60624000          -1.10374000           0.35290000         
H                    -1.16335000          -2.12707000           0.19485000         
H                    -1.73861000          -1.20052000          -1.20519000         
H                     0.56058000          -0.05858000          -1.42302000         
H                     2.49927000           1.20509000          -0.46982000         
H                     1.67399000           1.30288000           1.11887000         
H                     0.97855000           2.15129000          -0.30272000         
H                     0.98744000          -2.20789000          -0.22306000         
H                     1.52958000          -1.32051000           1.20227000         
H                     2.49336000          -1.28777000          -0.26588000         
19
Image 7 energy:-0.03228 
C                    -1.43196000           1.30998000          -0.02028000         
C                    -0.73578000           0.02981000           0.31796000         
C                    -1.60994000          -1.16842000          -0.10796000         
C                     0.69559000          -0.02881000          -0.31966000         
C                     1.50390000           1.23456000           0.01688000         
C                     1.46967000          -1.28829000           0.11249000         
H                    -1.46394000           2.16712000           0.66930000         
H                    -1.86597000           1.44060000          -1.02194000         
H                    -0.58595000          -0.01812000           1.40792000         
H                    -2.60398000          -1.10423000           0.34757000         
H                    -1.16910000          -2.13435000           0.19864000         
H                    -1.74394000          -1.17189000          -1.19068000         
H                     0.56171000          -0.07016000          -1.41511000         
H                     2.52190000           1.17498000          -0.39398000         
H                     1.59077000           1.35815000           1.10748000         
H                     1.01967000           2.13571000          -0.38256000         
H                     0.99444000          -2.21734000          -0.25030000         
H                     1.53996000          -1.35110000           1.22069000         
H                     2.49643000          -1.26707000          -0.29018000         
19
Image 8 energy:-0.03222 
C                    -1.43694000           1.31431000          -0.01730000         
C                    -0.73447000           0.03364000           0.31510000         
C                    -1.61001000          -1.17329000          -0.10438000         
C                     0.69617000          -0.03329000          -0.32304000         
C                     1.50172000           1.23253000           0.02337000         
C                     1.47291000          -1.28920000           0.10554000         
H                    -1.45826000           2.15057000           0.66414000         
H                    -1.85375000           1.46893000          -1.00502000         
H                    -0.58575000          -0.00560000           1.41326000         
H                    -2.61894000          -1.08469000           0.33773000         
H                    -1.17882000          -2.12358000           0.21032000         
H                    -1.72225000          -1.20624000          -1.20489000         
H                     0.55919000          -0.06489000          -1.41963000         
H                     2.54274000           1.14591000          -0.31314000         
H                     1.51491000           1.40276000           1.11184000         
H                     1.06363000           2.12297000          -0.44689000         
H                     0.98065000          -2.22199000          -0.20737000         
H                     1.58715000          -1.31603000           1.20425000         
H                     2.48669000          -1.27675000          -0.33619000         
19
Image 9 energy:-0.03205 
C                    -1.43363000           1.30928000          -0.01393000         
C                    -0.73709000           0.02755000           0.32184000         
C                    -1.61396000          -1.16767000          -0.11264000         
C                     0.69323000          -0.03130000          -0.31906000         
C                     1.50198000           1.23455000           0.01967000         
C                     1.47843000          -1.28621000           0.10488000         
H                    -1.50082000           2.14807000           0.69304000         
H                    -1.79398000           1.46999000          -1.03879000         
H                    -0.59964000          -0.02491000           1.41669000         
H                    -2.62144000          -1.07863000           0.29775000         
H                    -1.20311000          -2.12913000           0.24673000         
H                    -1.70429000          -1.20882000          -1.20582000         
H                     0.55120000          -0.06216000          -1.41600000         
H                     2.55455000           1.13346000          -0.30711000         
H                     1.50792000           1.41333000           1.10997000         
H                     1.07272000           2.12711000          -0.46396000         
H                     0.94929000          -2.21746000          -0.13886000         
H                     1.65835000          -1.27463000           1.18871000         
H                     2.45137000          -1.32249000          -0.39140000         
19
Image 10 energy:-0.03208 
C                    -1.42944000           1.31032000          -0.00696000         
C                    -0.73899000           0.02453000           0.31848000         
C                    -1.61136000          -1.17519000          -0.12175000         
C                     0.69186000          -0.02857000          -0.31674000         
C                     1.50322000           1.23664000           0.01052000         
C                     1.47184000          -1.28285000           0.11894000         
H                    -1.46480000           2.13291000           0.69922000         
H                    -1.79334000           1.49042000          -1.01967000         
H                    -0.60102000          -0.03164000           1.41324000         
H                    -2.64172000          -1.05199000           0.27496000         
H                    -1.21463000          -2.12462000           0.23044000         
H                    -1.67806000          -1.22055000          -1.21524000         
H                     0.55166000          -0.07292000          -1.41326000         
H                     2.53554000           1.16275000          -0.37021000         
H                     1.56228000           1.37764000           1.10431000         
H                     1.03385000           2.13583000          -0.41506000         
H                     0.92536000          -2.21355000          -0.09608000         
H                     1.69288000          -1.26024000           1.20328000         
H                     2.43592000          -1.33461000          -0.42562000         
19
Image 11 energy:-0.03205 
C                    -1.43576000           1.31338000           0.00756000         
C                    -0.73437000           0.02792000           0.31934000         
C                    -1.61092000          -1.16389000          -0.13646000         
C                     0.69585000          -0.03931000          -0.31750000         
C                     1.49657000           1.23399000          -0.00221000         
C                     1.47653000          -1.28484000           0.13235000         
H                    -1.46305000           2.15116000           0.70883000         
H                    -1.81586000           1.49014000          -0.99975000         
H                    -0.59432000          -0.03423000           1.41370000         
H                    -2.61691000          -1.07479000           0.26222000         
H                    -1.21516000          -2.14034000           0.22348000         
H                    -1.67021000          -1.21296000          -1.24650000         
H                     0.55232000          -0.09313000          -1.41313000         
H                     2.50735000           1.18638000          -0.43134000         
H                     1.60200000           1.35827000           1.08899000         
H                     0.99748000           2.13260000          -0.39032000         
H                     0.93471000          -2.20903000          -0.09409000         
H                     1.66393000          -1.25321000           1.21317000         
H                     2.45258000          -1.33963000          -0.37207000         
19
Image 12 energy:-0.03224 
C                    -1.43495000           1.31403000           0.01875000         
C                    -0.73894000           0.02119000           0.32438000         
C                    -1.61317000          -1.16660000          -0.14858000         
C                     0.69630000          -0.04102000          -0.31627000         
C                     1.49971000           1.23458000          -0.01823000         
C                     1.47802000          -1.28046000           0.14811000         
H                    -1.42801000           2.15438000           0.71625000         
H                    -1.83643000           1.49302000          -0.98650000         
H                    -0.60245000          -0.04780000           1.42036000         
H                    -2.64749000          -1.07215000           0.24419000         
H                    -1.20019000          -2.13004000           0.15973000         
H                    -1.68569000          -1.15422000          -1.23886000         
H                     0.55064000          -0.10470000          -1.40955000         
H                     2.49539000           1.18952000          -0.48309000         
H                     1.64613000           1.35800000           1.06777000         
H                     0.98927000           2.13117000          -0.39216000         
H                     0.96639000          -2.21561000          -0.10886000         
H                     1.63209000          -1.26233000           1.23802000         
H                     2.46615000          -1.31241000          -0.32443000         
19
Image 13 energy:-0.03214 
C                    -1.43049000           1.31395000           0.03434000         
C                    -0.74301000           0.01485000           0.31638000         
C                    -1.62118000          -1.15913000          -0.16284000         
C                     0.69199000          -0.04260000          -0.31360000         
C                     1.50383000           1.23350000          -0.03307000         
C                     1.48166000          -1.27430000           0.16619000         
H                    -1.39222000           2.14504000           0.73529000         
H                    -1.87285000           1.49627000          -0.94685000         
H                    -0.60745000          -0.07528000           1.40843000         
H                    -2.62330000          -1.09445000           0.26971000         
H                    -1.19159000          -2.13698000           0.13341000         
H                    -1.71133000          -1.14898000          -1.27553000         
H                     0.55630000          -0.12043000          -1.40872000         
H                     2.49450000           1.17877000          -0.51172000         
H                     1.66359000           1.36316000           1.04951000         
H                     0.98613000           2.12671000          -0.40686000         
H                     0.99740000          -2.22832000          -0.10469000         
H                     1.60847000          -1.25554000           1.26389000         
H                     2.48792000          -1.27712000          -0.29400000         
19
Image 14 energy:-0.03225 
C                    -1.42346000           1.31585000           0.04651000         
C                    -0.73765000           0.01335000           0.31461000         
C                    -1.61977000          -1.15584000          -0.17511000         
C                     0.69523000          -0.05181000          -0.32098000         
C                     1.49093000           1.23619000          -0.04223000         
C                     1.48546000          -1.27611000           0.18009000         
H                    -1.36572000           2.15557000           0.74464000         
H                    -1.89974000           1.49065000          -0.92408000         
H                    -0.59725000          -0.08497000           1.40875000         
H                    -2.61275000          -1.10722000           0.30277000         
H                    -1.18130000          -2.13541000           0.05112000         
H                    -1.77268000          -1.09451000          -1.25974000         
H                     0.55980000          -0.13755000          -1.41562000         
H                     2.48861000           1.18721000          -0.50916000         
H                     1.63723000           1.37772000           1.04415000         
H                     0.96738000           2.12975000          -0.42703000         
H                     0.99045000          -2.21946000          -0.07234000         
H                     1.59130000          -1.23266000           1.27222000         
H                     2.49555000          -1.30115000          -0.25002000         
19
Image 15 energy:-0.03219 
C                    -1.41968000           1.31494000           0.06478000         
C                    -0.73649000           0.00611000           0.31207000         
C                    -1.63329000          -1.15259000          -0.18708000         
C                     0.70509000          -0.05364000          -0.32285000         
C                     1.48831000           1.23970000          -0.05668000         
C                     1.48696000          -1.27196000           0.19431000         
H                    -1.33133000           2.14718000           0.75850000         
H                    -1.92093000           1.50556000          -0.88424000         
H                    -0.59019000          -0.10768000           1.40270000         
H                    -2.61982000          -1.12120000           0.29140000         
H                    -1.18923000          -2.13615000           0.02404000         
H                    -1.78437000          -1.07296000          -1.27764000         
H                     0.57250000          -0.15819000          -1.41400000         
H                     2.50178000           1.17990000          -0.47520000         
H                     1.57940000           1.42403000           1.02521000         
H                     0.98657000           2.10694000          -0.50191000         
H                     1.00034000          -2.23134000          -0.05872000         
H                     1.59436000          -1.22694000           1.29502000         
H                     2.49993000          -1.29211000          -0.23917000         
19
Image 16 energy:-0.03211 
C                    -1.42559000           1.31631000           0.08148000         
C                    -0.74011000           0.00508000           0.31491000         
C                    -1.62444000          -1.14741000          -0.20649000         
C                     0.69327000          -0.06095000          -0.31817000         
C                     1.49023000           1.23351000          -0.07098000         
C                     1.49437000          -1.26615000           0.20579000         
H                    -1.33841000           2.14333000           0.78665000         
H                    -1.91417000           1.51225000          -0.87602000         
H                    -0.60213000          -0.12059000           1.40675000         
H                    -2.61494000          -1.10845000           0.27524000         
H                    -1.19079000          -2.13517000          -0.00504000         
H                    -1.78144000          -1.05381000          -1.29157000         
H                     0.55797000          -0.17209000          -1.41042000         
H                     2.51590000           1.14330000          -0.46824000         
H                     1.57187000           1.43558000           1.00957000         
H                     1.01408000           2.10650000          -0.54315000         
H                     0.98782000          -2.22391000           0.01089000         
H                     1.64042000          -1.17717000           1.29466000         
H                     2.49054000          -1.30703000          -0.26715000         
19
Image 17 energy:-0.03203 
C                    -1.41527000           1.31283000           0.09190000         
C                    -0.74245000          -0.00518000           0.31752000         
C                    -1.63646000          -1.14726000          -0.22007000         
C                     0.69876000          -0.05854000          -0.31610000         
C                     1.48838000           1.23996000          -0.08295000         
C                     1.49363000          -1.26177000           0.22058000         
H                    -1.31223000           2.13527000           0.79964000         
H                    -1.89531000           1.53054000          -0.86439000         
H                    -0.60557000          -0.14401000           1.40443000         
H                    -2.63288000          -1.10694000           0.22910000         
H                    -1.21744000          -2.13805000          -0.01058000         
H                    -1.75521000          -1.05891000          -1.31064000         
H                     0.56244000          -0.18319000          -1.40706000         
H                     2.49011000           1.17586000          -0.53333000         
H                     1.61973000           1.42693000           0.99279000         
H                     0.97603000           2.11048000          -0.51355000         
H                     0.96581000          -2.21006000           0.06610000         
H                     1.68760000          -1.14933000           1.30053000         
H                     2.46730000          -1.34160000          -0.28261000         
19
Image 18 energy:-0.03151 
C                    -1.42180000           1.31739000           0.11051000         
C                    -0.74254000          -0.00206000           0.31357000         
C                    -1.62923000          -1.14014000          -0.23713000         
C                     0.69908000          -0.06888000          -0.31337000         
C                     1.48332000           1.23392000          -0.09981000         
C                     1.49998000          -1.26095000           0.23596000         
H                    -1.31307000           2.13900000           0.82274000         
H                    -1.90769000           1.53839000          -0.84420000         
H                    -0.62111000          -0.14552000           1.41344000         
H                    -2.64630000          -1.07714000           0.21094000         
H                    -1.21253000          -2.14493000          -0.01308000         
H                    -1.73575000          -1.04217000          -1.33101000         
H                     0.54934000          -0.20660000          -1.39285000         
H                     2.46565000           1.18616000          -0.58549000         
H                     1.64859000           1.41117000           0.97320000         
H                     0.94473000           2.09640000          -0.50303000         
H                     0.99306000          -2.22243000           0.07178000         
H                     1.67763000          -1.15054000           1.31989000         
H                     2.48138000          -1.32576000          -0.25809000         
19
Image 19 energy:-0.03151 
C                    -1.41373000           1.31567000           0.11891000         
C                    -0.74569000          -0.00752000           0.31601000         
C                    -1.63135000          -1.13767000          -0.24518000         
C                     0.69186000          -0.06985000          -0.31410000         
C                     1.48508000           1.23568000          -0.11093000         
C                     1.49597000          -1.25757000           0.24963000         
H                    -1.27271000           2.13615000           0.82001000         
H                    -1.93814000           1.53115000          -0.81609000         