15
Image 1 energy:-0.02144 
C                     1.22772000          -0.82702000          -0.12781000         
C                     0.00001000          -0.00003000           0.02804000         
C                     0.10234000           1.47671000          -0.12765000         
C                    -1.33006000          -0.64964000          -0.12812000         
H                    -0.00004000          -0.00034000           2.55210000         
H                    -0.00003000          -0.00029000           3.30006000         
H                     1.47458000          -0.99252000          -1.18811000         
H                     1.10792000          -1.81469000           0.32380000         
H                     2.09775000          -0.34548000           0.32494000         
H                     1.01789000           1.86667000           0.32341000         
H                    -0.74938000           1.98940000           0.32575000         
H                     0.12148000           1.77340000          -1.18791000         
H                    -2.12547000          -0.05232000           0.32392000         
H                    -1.59687000          -0.77998000          -1.18849000         
H                    -1.34808000          -1.64417000           0.32395000         
15
Image 2 energy:-0.02140 
C                     1.22705000          -0.82656000          -0.12749000         
C                     0.00001000          -0.00003000           0.03794000         
C                     0.10228000           1.47590000          -0.12744000         
C                    -1.32934000          -0.64932000          -0.12761000         
H                     0.00006000          -0.00008000           2.49925000         
H                     0.00009000           0.00001000           3.24785000         
H                     1.46652000          -0.98728000          -1.19062000         
H                     1.11009000          -1.81607000           0.32092000         
H                     2.09991000          -0.34679000           0.32176000         
H                     1.01779000           1.86935000           0.32080000         
H                    -0.74956000           1.99191000           0.32200000         
H                     0.12150000           1.76369000          -1.19056000         
H                    -2.12775000          -0.05341000           0.32109000         
H                    -1.58835000          -0.77594000          -1.19076000         
H                    -1.35031000          -1.64530000           0.32124000         
15
Image 3 energy:-0.02130 
C                     1.22601000          -0.82584000          -0.12757000         
C                     0.00001000          -0.00002000           0.04951000         
C                     0.10218000           1.47464000          -0.12754000         
C                    -1.32820000          -0.64878000          -0.12763000         
H                     0.00006000          -0.00005000           2.45051000         
H                     0.00009000          -0.00000000           3.19928000         
H                     1.45579000          -0.98007000          -1.19386000         
H                     1.11250000          -1.81777000           0.31620000         
H                     2.10242000          -0.34834000           0.31700000         
H                     1.01793000           1.87234000           0.31630000         
H                    -0.74960000           1.99484000           0.31700000         
H                     0.12089000           1.75078000          -1.19382000         
H                    -2.13042000          -0.05463000           0.31640000         
H                    -1.57676000          -0.77034000          -1.19394000         
H                    -1.35290000          -1.64667000           0.31661000         
15
Image 4 energy:-0.02112 
C                     1.22476000          -0.82498000          -0.12788000         
C                     0.00001000          -0.00002000           0.06185000         
C                     0.10207000           1.47314000          -0.12785000         
C                    -1.32683000          -0.64814000          -0.12791000         
H                     0.00005000          -0.00004000           2.40333000         
H                     0.00009000          -0.00002000           3.15309000         
H                     1.44428000          -0.97230000          -1.19752000         
H                     1.11498000          -1.81952000           0.31090000         
H                     2.10500000          -0.34996000           0.31169000         
H                     1.01813000           1.87540000           0.31113000         
H                    -0.74958000           1.99788000           0.31152000         
H                     0.12011000           1.73691000          -1.19748000         
H                    -2.13319000          -0.05591000           0.31112000         
H                    -1.56429000          -0.76431000          -1.19756000         
H                    -1.35557000          -1.64809000           0.31136000         
15
Image 5 energy:-0.02085 
C                     1.22328000          -0.82398000          -0.12821000         
C                     0.00000000          -0.00002000           0.07431000         
C                     0.10193000           1.47136000          -0.12818000         
C                    -1.32522000          -0.64737000          -0.12822000         
H                     0.00004000          -0.00002000           2.35786000         
H                     0.00008000          -0.00000000           3.10762000         
H                     1.43161000          -0.96374000          -1.20100000         
H                     1.11737000          -1.82126000           0.30499000         
H                     2.10752000          -0.35150000           0.30578000         
H                     1.01839000           1.87837000           0.30531000         
H                    -0.74956000           2.00084000           0.30551000         
H                     0.11916000           1.72164000          -1.20097000         
H                    -2.13589000          -0.05713000           0.30522000         
H                    -1.55055000          -0.75764000          -1.20102000         
H                    -1.35815000          -1.64950000           0.30549000         
15
Image 6 energy:-0.02048 
C                     1.22179000          -0.82296000          -0.12854000         
C                     0.00000000          -0.00001000           0.08673000         
C                     0.10180000           1.46957000          -0.12852000         
C                    -1.32360000          -0.64660000          -0.12854000         
H                     0.00004000          -0.00003000           2.31133000         
H                     0.00009000          -0.00001000           3.06250000         
H                     1.41927000          -0.95539000          -1.20440000         
H                     1.11963000          -1.82289000           0.29928000         
H                     2.10990000          -0.35296000           0.30007000         
H                     1.01865000           1.88115000           0.29965000         
H                    -0.74951000           2.00363000           0.29973000         
H                     0.11820000           1.70677000          -1.20438000         
H                    -2.13845000          -0.05828000           0.29951000         
H                    -1.53717000          -0.75113000          -1.20441000         
H                    -1.36059000          -1.65084000           0.29980000         
15
Image 7 energy:-0.01998 
C                     1.22016000          -0.82184000          -0.12880000         
C                    -0.00000000          -0.00001000           0.09898000         
C                     0.10166000           1.46760000          -0.12879000         
C                    -1.32182000          -0.64575000          -0.12880000         
H                     0.00003000          -0.00003000           2.26574000         
H                     0.00008000          -0.00002000           3.01706000         
H                     1.40628000          -0.94661000          -1.20754000         
H                     1.12179000          -1.82449000           0.29328000         
H                     2.11220000          -0.35434000           0.29408000         
H                     1.01894000           1.88383000           0.29369000         
H                    -0.74948000           2.00632000           0.29369000         
H                     0.11716000           1.69111000          -1.20753000         
H                    -2.14092000          -0.05937000           0.29352000         
H                    -1.52308000          -0.74426000          -1.20755000         
H                    -1.36293000          -1.65215000           0.29381000         
15
Image 8 energy:-0.01936 
C                     1.21857000          -0.82076000          -0.12905000         
C                    -0.00000000          -0.00001000           0.11109000         
C                     0.10152000           1.46568000          -0.12904000         
C                    -1.32009000          -0.64491000          -0.12905000         
H                     0.00002000          -0.00002000           2.21858000         
H                     0.00008000          -0.00001000           2.97184000         
H                     1.39370000          -0.93811000          -1.21042000         
H                     1.12380000          -1.82597000           0.28754000         
H                     2.11434000          -0.35563000           0.28835000         
H                     1.01921000           1.88630000           0.28798000         
H                    -0.74943000           2.00882000           0.28793000         
H                     0.11614000           1.67597000          -1.21040000         
H                    -2.14321000          -0.06038000           0.28780000         
H                    -1.50945000          -0.73761000          -1.21042000         
H                    -1.36511000          -1.65335000           0.28808000         
15
Image 9 energy:-0.01858 
C                     1.21701000          -0.81970000          -0.12918000         
C                    -0.00001000          -0.00001000           0.12283000         
C                     0.10139000           1.46381000          -0.12917000         
C                    -1.31840000          -0.64410000          -0.12917000         
H                     0.00003000          -0.00004000           2.17178000         
H                     0.00008000          -0.00002000           2.92489000         
H                     1.38116000          -0.92964000          -1.21295000         
H                     1.12578000          -1.82741000           0.28189000         
H                     2.11642000          -0.35689000           0.28272000         
H                     1.01948000           1.88873000           0.28235000         
H                    -0.74938000           2.01127000           0.28227000         
H                     0.11511000           1.66088000          -1.21294000         
H                    -2.14545000          -0.06137000           0.28216000         
H                    -1.49586000          -0.73097000          -1.21295000         
H                    -1.36724000          -1.65453000           0.28244000         
15
Image 10 energy:-0.01763 
C                     1.21561000          -0.81875000          -0.12938000         
C                    -0.00001000          -0.00001000           0.13463000         
C                     0.10127000           1.46212000          -0.12937000         
C                    -1.31688000          -0.64336000          -0.12937000         
H                     0.00002000          -0.00003000           2.12229000         
H                     0.00008000          -0.00002000           2.87939000         
H                     1.36941000          -0.92170000          -1.21522000         
H                     1.12764000          -1.82872000           0.27663000         
H                     2.11834000          -0.35811000           0.27748000         
H                     1.01968000           1.89099000           0.27711000         
H                    -0.74927000           2.01354000           0.27701000         
H                     0.11413000           1.64675000          -1.21520000         
H                    -2.14752000          -0.06233000           0.27692000         
H                    -1.48313000          -0.72475000          -1.21521000         
H                    -1.36926000          -1.65558000           0.27719000         
15
Image 11 energy:-0.01650 
C                     1.21436000          -0.81790000          -0.12948000         
C                    -0.00001000          -0.00001000           0.14599000         
C                     0.10116000           1.46061000          -0.12946000         
C                    -1.31552000          -0.64270000          -0.12946000         
H                     0.00002000          -0.00004000           2.07571000         
H                     0.00008000          -0.00002000           2.82932000         
H                     1.35819000          -0.91413000          -1.21710000         
H                     1.12952000          -1.83001000           0.27167000         
H                     2.12025000          -0.35937000           0.27254000         
H                     1.01986000           1.89326000           0.27217000         
H                    -0.74915000           2.01583000           0.27205000         
H                     0.11319000           1.63323000          -1.21709000         
H                    -2.14958000          -0.06332000           0.27198000         
H                    -1.47096000          -0.71881000          -1.21709000         
H                    -1.37129000          -1.65662000           0.27224000         
15
Image 12 energy:-0.01518 
C                     1.21343000          -0.81726000          -0.12973000         
C                    -0.00001000          -0.00001000           0.15745000         
C                     0.10108000           1.45948000          -0.12972000         
C                    -1.31451000          -0.64221000          -0.12972000         
H                     0.00002000          -0.00004000           2.01986000         
H                     0.00008000          -0.00002000           2.78746000         
H                     1.34856000          -0.90763000          -1.21862000         
H                     1.13118000          -1.83108000           0.26747000         
H                     2.12187000          -0.36050000           0.26835000         
H                     1.01996000           1.89523000           0.26797000         
H                    -0.74898000           2.01779000           0.26785000         
H                     0.11239000           1.62164000          -1.21860000         
H                    -2.15134000          -0.06422000           0.26779000         
H                    -1.46053000          -0.71371000          -1.21860000         
H                    -1.37307000          -1.65745000           0.26804000         
15
Image 13 energy:-0.01354 
C                     1.21270000          -0.81676000          -0.12952000         
C                    -0.00001000          -0.00001000           0.16697000         
C                     0.10102000           1.45859000          -0.12951000         
C                    -1.31371000          -0.64182000          -0.12950000         
H                     0.00002000          -0.00003000           1.98377000         
H                     0.00008000          -0.00001000           2.72751000         
H                     1.33992000          -0.90180000          -1.21976000         
H                     1.13286000          -1.83218000           0.26388000         
H                     2.12353000          -0.36164000           0.26478000         
H                     1.02007000           1.89724000           0.26439000         
H                    -0.74882000           2.01979000           0.26427000         
H                     0.11166000           1.61124000          -1.21974000         
H                    -2.15313000          -0.06513000           0.26421000         
H                    -1.45116000          -0.70912000          -1.21974000         
H                    -1.37488000          -1.65832000           0.26445000         
15
Image 14 energy:-0.01185 
C                     1.21238000          -0.81655000          -0.12986000         
C                    -0.00001000          -0.00001000           0.17652000         
C                     0.10099000           1.45822000          -0.12985000         
C                    -1.31338000          -0.64165000          -0.12984000         
H                     0.00001000          -0.00003000           1.91268000         
H                     0.00008000          -0.00001000           2.71367000         
H                     1.33351000          -0.89747000          -1.22039000         
H                     1.13400000          -1.83289000           0.26144000         
H                     2.12461000          -0.36243000           0.26234000         
H                     1.02011000           1.89858000           0.26195000         
H                    -0.74867000           2.02112000           0.26182000         
H                     0.11113000           1.60352000          -1.22037000         
H                    -2.15431000          -0.06576000           0.26178000         
H                    -1.44422000          -0.70572000          -1.22037000         
H                    -1.37610000          -1.65886000           0.26201000         
15
Image 15 energy:-0.01050 
C                     1.21201000          -0.81630000          -0.12919000         
C                    -0.00001000          -0.00002000           0.18446000         
C                     0.10096000           1.45776000          -0.12918000         
C                    -1.31297000          -0.64145000          -0.12917000         
H                     0.00002000          -0.00003000           1.88075000         
H                     0.00007000          -0.00001000           2.64422000         
H                     1.32505000          -0.89176000          -1.22079000         
H                     1.13597000          -1.83403000           0.25877000         
H                     2.12641000          -0.36383000           0.25969000         
H                     1.02010000           1.90086000           0.25929000         
H                    -0.74836000           2.02337000           0.25916000         
H                     0.11042000           1.59333000          -1.22078000         
H                    -2.15628000          -0.06691000           0.25914000         
H                    -1.43506000          -0.70123000          -1.22077000         
H                    -1.37821000          -1.65972000           0.25933000         
15
Image 16 energy:-0.00850 
C                     1.21185000          -0.81619000          -0.12989000         
C                    -0.00001000          -0.00002000           0.19640000         
C                     0.10094000           1.45757000          -0.12988000         
C                    -1.31279000          -0.64137000          -0.12988000         
H                     0.00002000          -0.00003000           1.81908000         
H                     0.00007000          -0.00001000           2.60768000         
H                     1.31853000          -0.88736000          -1.22177000         
H                     1.13742000          -1.83474000           0.25612000         
H                     2.12761000          -0.36491000           0.25705000         
H                     1.01999000           1.90247000           0.25665000         
H                    -0.74804000           2.02495000           0.25651000         
H                     0.10987000           1.58548000          -1.22176000         
H                    -2.15761000          -0.06780000           0.25650000         
H                    -1.42799000          -0.69776000          -1.22176000         
H                    -1.37974000          -1.66023000           0.25668000         
15
Image 17 energy:-0.00628 
C                     1.21184000          -0.81618000          -0.13044000         
C                    -0.00001000          -0.00002000           0.20792000         
C                     0.10094000           1.45755000          -0.13043000         
C                    -1.31278000          -0.64136000          -0.13042000         
H                     0.00003000          -0.00004000           1.76363000         
H                     0.00007000          -0.00001000           2.56051000         
H                     1.31253000          -0.88331000          -1.22250000         
H                     1.13890000          -1.83540000           0.25397000         
H                     2.12879000          -0.36604000           0.25491000         
H                     1.01982000           1.90409000           0.25451000         
H                    -0.74766000           2.02652000           0.25437000         
H                     0.10937000           1.57825000          -1.22249000         
H                    -2.15892000          -0.06875000           0.25438000         
H                    -1.42149000          -0.69457000          -1.22248000         
H                    -1.38130000          -1.66069000           0.25453000         
15
Image 18 energy:-0.00403 
C                     1.21201000          -0.81629000          -0.13133000         
C                    -0.00001000          -0.00002000           0.21996000         
C                     0.10095000           1.45775000          -0.13132000         
C                    -1.31296000          -0.64145000          -0.13131000         
H                     0.00003000          -0.00004000           1.70247000         
H                     0.00007000          -0.00001000           2.52223000         
H                     1.30792000          -0.88020000          -1.22318000         
H                     1.14005000          -1.83584000           0.25230000         
H                     2.12963000          -0.36695000           0.25325000         
H                     1.01962000           1.90531000           0.25284000         
H                    -0.74730000           2.02770000           0.25270000         
H                     0.10898000           1.57271000          -1.22317000         
H                    -2.15988000          -0.06953000           0.25272000         
H                    -1.41650000          -0.69211000          -1.22316000         
H                    -1.38250000          -1.66097000           0.25285000         
15
Image 19 energy:-0.00195 
C                     1.21232000          -0.81650000          -0.13221000         
C                    -0.00000000          -0.00002000           0.23165000         
C                     0.10098000           1.45812000          -0.13219000         
C                    -1.31330000          -0.64161000          -0.13219000         
H                     0.00003000          -0.00004000           1.63931000         
H                     0.00006000          -0.00000000           2.48675000         
H                     1.30419000          -0.87768000          -1.22369000         
H                     1.14116000          -1.83612000           0.25100000         
H                     2.13030000          -0.36788000           0.25196000         
H                     1.01929000           1.90642000           0.25154000         
H                    -0.74683000           2.02873000           0.25141000         
H                     0.10867000           1.56820000          -1.22368000         
H                    -2.16067000          -0.07037000           0.25144000         
H                    -1.41246000          -0.69011000          -1.22367000         
H                    -1.38365000          -1.66108000           0.25153000         
15
Image 20 energy:-0.00054 
C                     1.21268000          -0.81674000          -0.13355000         
C                    -0.00000000          -0.00002000           0.24194000         
C                     0.10100000           1.45855000          -0.13354000         
C                    -1.31368000          -0.64179000          -0.13353000         
H                     0.00003000          -0.00004000           1.56451000         
H                     0.00006000          -0.00000000           2.49579000         
H                     1.30234000          -0.87642000          -1.22438000         
H                     1.14194000          -1.83618000           0.24989000         
H                     2.13065000          -0.36858000           0.25087000         
H                     1.01896000           1.90714000           0.25045000         
H                    -0.74642000           2.02938000           0.25033000         
H                     0.10852000           1.56596000          -1.22438000         
H                    -2.16112000          -0.07102000           0.25037000         
H                    -1.41046000          -0.68912000          -1.22436000         
H                    -1.38445000          -1.66105000           0.25041000         
15
Image 21 energy:0.00000 
C                     1.21301000          -0.81697000          -0.13517000         
C                    -0.00000000          -0.00002000           0.25003000         
C                     0.10103000           1.45896000          -0.13516000         
C                    -1.31405000          -0.64197000          -0.13515000         
H                     0.00002000          -0.00004000           1.49623000         
H                     0.00006000           0.00000000           2.53514000         
H                     1.30157000          -0.87591000          -1.22535000         
H                     1.14267000          -1.83626000           0.24877000         
H                     2.13100000          -0.36922000           0.24975000         
H                     1.01866000           1.90780000           0.24933000         
H                    -0.74603000           2.03001000           0.24921000         
H                     0.10845000           1.56504000          -1.22534000         
H                    -2.16156000          -0.07162000           0.24925000         
H                    -1.40963000          -0.68871000          -1.22533000         
H                    -1.38517000          -1.66103000           0.24929000         
15
Image 22 energy:-0.00030 
C                     1.21335000          -0.81719000          -0.13679000         
C                    -0.00000000          -0.00002000           0.25811000         
C                     0.10106000           1.45936000          -0.13678000         
C                    -1.31441000          -0.64215000          -0.13677000         
H                     0.00002000          -0.00003000           1.42795000         
H                     0.00006000           0.00001000           2.57449000         
H                     1.30081000          -0.87539000          -1.22631000         
H                     1.14340000          -1.83635000           0.24765000         
H                     2.13134000          -0.36986000           0.24863000         
H                     1.01837000           1.90847000           0.24821000         
H                    -0.74564000           2.03063000           0.24809000         
H                     0.10839000           1.56413000          -1.22631000         
H                    -2.16200000          -0.07222000           0.24813000         
H                    -1.40880000          -0.68830000          -1.22629000         
H                    -1.38590000          -1.66101000           0.24817000         
15
Image 23 energy:-0.00089 
C                     1.21366000          -0.81740000          -0.13929000         
C                    -0.00001000          -0.00002000           0.26435000         
C                     0.10109000           1.45974000          -0.13927000         
C                    -1.31475000          -0.64232000          -0.13927000         
H                    -0.00001000          -0.00003000           1.39606000         
H                     0.00006000           0.00001000           2.64451000         
H                     1.29956000          -0.87459000          -1.22858000         
H                     1.14476000          -1.83680000           0.24496000         
H                     2.13230000          -0.37095000           0.24589000         
H                     1.01810000           1.90987000           0.24550000         
H                    -0.74515000           2.03202000           0.24536000         
H                     0.10829000           1.56267000          -1.22856000         
H                    -2.16308000          -0.07315000           0.24537000         
H                    -1.40745000          -0.68770000          -1.22856000         
H                    -1.38730000          -1.66127000           0.24550000         
15
Image 24 energy:-0.00154 
C                     1.21357000          -0.81734000          -0.14148000         
C                    -0.00001000          -0.00002000           0.26555000         
C                     0.10109000           1.45964000          -0.14145000         