22
Image 1 energy:-0.00511 
C                     2.00340000          -1.20695000          -0.83080000         
C                     2.23553000          -0.96695000           0.62247000         
C                    -0.35750000           0.92756000           0.74849000         
C                     0.31730000           2.18585000           0.27569000         
C                    -1.13436000           0.07862000           0.04921000         
C                    -1.70979000          -1.15692000           0.70419000         
C                    -1.48551000           0.22997000          -1.41155000         
H                     1.85869000          -0.26438000          -1.37802000         
H                     1.11859000          -1.82878000          -1.00615000         
H                     2.85647000          -1.72233000          -1.31404000         
H                     2.87586000          -0.15272000           0.95908000         
H                     1.88221000          -1.67214000           1.37334000         
H                    -0.18290000           0.68863000           1.80296000         
H                     1.39914000           2.13162000           0.46678000         
H                    -0.05464000           3.06735000           0.82032000         
H                     0.17769000           2.37754000          -0.79415000         
H                    -2.81062000          -1.17365000           0.62940000         
H                    -1.43735000          -1.22230000           1.76599000         
H                    -1.35100000          -2.07278000           0.20300000         
H                    -1.17977000          -0.66921000          -1.97912000         
H                    -1.01327000           1.10272000          -1.88415000         
H                    -2.58019000           0.32470000          -1.54272000         
22
Image 2 energy:-0.00506 
C                     2.00775000          -1.20001000          -0.83148000         
C                     2.23284000          -0.97329000           0.62506000         
C                    -0.36140000           0.93284000           0.75125000         
C                     0.32206000           2.18160000           0.26987000         
C                    -1.13609000           0.07622000           0.04900000         
C                    -1.71311000          -1.15467000           0.70584000         
C                    -1.48451000           0.22910000          -1.41150000         
H                     1.83263000          -0.24867000          -1.36732000         
H                     1.12722000          -1.84967000          -1.00042000         
H                     2.87754000          -1.68805000          -1.32767000         
H                     2.89373000          -0.17676000           0.96734000         
H                     1.86081000          -1.67439000           1.37119000         
H                    -0.18666000           0.69708000           1.80614000         
H                     1.41451000           2.10786000           0.42720000         
H                    -0.02196000           3.06495000           0.84045000         
H                     0.15023000           2.38302000          -0.79834000         
H                    -2.81552000          -1.16265000           0.64711000         
H                    -1.42444000          -1.22865000           1.76384000         
H                    -1.36895000          -2.07035000           0.19414000         
H                    -1.10332000          -0.62466000          -1.99132000         
H                    -1.08291000           1.14205000          -1.86098000         
H                    -2.57564000           0.23601000          -1.55309000         
22
Image 3 energy:-0.00511 
C                     2.01205000          -1.19653000          -0.83241000         
C                     2.22566000          -0.97159000           0.62379000         
C                    -0.36074000           0.93016000           0.74950000         
C                     0.32560000           2.17798000           0.26745000         
C                    -1.14020000           0.08082000           0.05209000         
C                    -1.70909000          -1.15753000           0.70757000         
C                    -1.48993000           0.23116000          -1.40898000         
H                     1.92150000          -0.24781000          -1.38223000         
H                     1.10615000          -1.78106000          -1.02456000         
H                     2.85231000          -1.74704000          -1.29850000         
H                     2.92095000          -0.20848000           0.97317000         
H                     1.82142000          -1.65962000           1.36416000         
H                    -0.18724000           0.69507000           1.80482000         
H                     1.40665000           2.11867000           0.46668000         
H                    -0.04398000           3.06876000           0.80088000         
H                     0.19578000           2.35644000          -0.80652000         
H                    -2.81018000          -1.18050000           0.63673000         
H                    -1.43175000          -1.22380000           1.76852000         
H                    -1.34624000          -2.07114000           0.20411000         
H                    -1.05982000          -0.59898000          -1.99784000         
H                    -1.13492000           1.17271000          -1.84828000         
H                    -2.58353000           0.18194000          -1.55434000         
22
Image 4 energy:-0.00503 
C                     2.01324000          -1.19619000          -0.83737000         
C                     2.22698000          -0.96002000           0.62164000         
C                    -0.35877000           0.92808000           0.75162000         
C                     0.32820000           2.17608000           0.27231000         
C                    -1.13590000           0.07155000           0.04974000         
C                    -1.71445000          -1.15788000           0.70804000         
C                    -1.49044000           0.23024000          -1.40812000         
H                     1.98490000          -0.24703000          -1.40221000         
H                     1.05937000          -1.72847000          -1.01980000         
H                     2.82209000          -1.81216000          -1.29074000         
H                     2.90878000          -0.18557000           0.97063000         
H                     1.81295000          -1.64206000           1.36417000         
H                    -0.18506000           0.69050000           1.80690000         
H                     1.40114000           2.13624000           0.51585000         
H                    -0.07478000           3.07330000           0.76817000         
H                     0.23477000           2.32661000          -0.81179000         
H                    -2.81459000          -1.17786000           0.62902000         
H                    -1.44501000          -1.21935000           1.77127000         
H                    -1.35240000          -2.07503000           0.21283000         
H                    -1.11165000          -0.61879000          -1.99627000         
H                    -1.09630000           1.14992000          -1.85483000         
H                    -2.58272000           0.23594000          -1.54275000         
22
Image 5 energy:-0.00514 
C                     2.01317000          -1.20191000          -0.83345000         
C                     2.22531000          -0.95605000           0.61890000         
C                    -0.35459000           0.92166000           0.75166000         
C                     0.32388000           2.17480000           0.27177000         
C                    -1.13631000           0.07723000           0.05237000         
C                    -1.71632000          -1.15674000           0.70585000         
C                    -1.48675000           0.23214000          -1.40864000         
H                     1.90924000          -0.25964000          -1.39166000         
H                     1.11012000          -1.79758000          -1.01551000         
H                     2.85550000          -1.75178000          -1.29981000         
H                     2.87442000          -0.15009000           0.95958000         
H                     1.85404000          -1.65203000           1.36889000         
H                    -0.18296000           0.68681000           1.80670000         
H                     1.40533000           2.13346000           0.48963000         
H                    -0.07215000           3.06449000           0.79565000         
H                     0.21090000           2.34314000          -0.80747000         
H                    -2.81853000          -1.16513000           0.63910000         
H                    -1.43650000          -1.22897000           1.76597000         
H                    -1.36719000          -2.07364000           0.19783000         
H                    -1.15895000          -0.65211000          -1.98349000         
H                    -1.03534000           1.11692000          -1.87083000         
H                    -2.58075000           0.30115000          -1.54138000         
22
Image 6 energy:-0.00505 
C                     2.00080000          -1.20181000          -0.83378000         
C                     2.24018000          -0.96896000           0.62111000         
C                    -0.36493000           0.93485000           0.75258000         
C                     0.32260000           2.18386000           0.27769000         
C                    -1.13334000           0.07331000           0.04692000         
C                    -1.71537000          -1.15465000           0.70603000         
C                    -1.48105000           0.22507000          -1.41285000         
H                     1.83867000          -0.25834000          -1.37812000         
H                     1.12017000          -1.84377000          -0.99972000         
H                     2.86359000          -1.69948000          -1.32352000         
H                     2.89182000          -0.16293000           0.95737000         
H                     1.87746000          -1.67072000           1.36923000         
H                    -0.19208000           0.69405000           1.80791000         
H                     1.40140000           2.12300000           0.46699000         
H                    -0.03925000           3.06838000           0.81800000         
H                     0.17731000           2.37505000          -0.79300000         
H                    -2.81657000          -1.16874000           0.62719000         
H                    -1.44592000          -1.21709000           1.76983000         
H                    -1.35739000          -2.07361000           0.20948000         
H                    -1.15211000          -0.66529000          -1.98007000         
H                    -1.02889000           1.11340000          -1.88261000         
H                    -2.57711000           0.29461000          -1.54655000         
22
Image 7 energy:-0.00511 
C                     2.00611000          -1.19648000          -0.83191000         
C                     2.23397000          -0.97631000           0.62255000         
C                    -0.36380000           0.93181000           0.75102000         
C                     0.32149000           2.17993000           0.26844000         
C                    -1.14090000           0.08236000           0.05283000         
C                    -1.71307000          -1.15458000           0.70781000         
C                    -1.48051000           0.22726000          -1.41164000         
H                     1.85581000          -0.24412000          -1.36735000         
H                     1.12148000          -1.82095000          -1.01028000         
H                     2.86252000          -1.70355000          -1.32330000         
H                     2.91880000          -0.20036000           0.96478000         
H                     1.85781000          -1.67613000           1.36724000         
H                    -0.19577000           0.70194000           1.80785000         
H                     1.41344000           2.10315000           0.42766000         
H                    -0.02012000           3.06462000           0.83852000         
H                     0.15522000           2.38178000          -0.79822000         
H                    -2.81285000          -1.17899000           0.63033000         
H                    -1.44247000          -1.21771000           1.76982000         
H                    -1.34656000          -2.06853000           0.20957000         
H                    -1.06467000          -0.61119000          -1.99177000         
H                    -1.10522000           1.15307000          -1.85397000         
H                    -2.56977000           0.19784000          -1.56530000         
22
Image 8 energy:-0.00494 
C                     2.00886000          -1.19095000          -0.83674000         
C                     2.22718000          -0.96804000           0.62223000         
C                    -0.36359000           0.93285000           0.75258000         
C                     0.33234000           2.17510000           0.27168000         
C                    -1.13809000           0.07551000           0.04986000         
C                    -1.71600000          -1.15436000           0.71035000         
C                    -1.48537000           0.22396000          -1.41138000         
H                     1.92174000          -0.24235000          -1.38413000         
H                     1.09413000          -1.77256000          -1.02222000         
H                     2.84405000          -1.74697000          -1.30820000         
H                     2.92012000          -0.20622000           0.97524000         
H                     1.81636000          -1.65454000           1.35872000         
H                    -0.19152000           0.69554000           1.80820000         
H                     1.40910000           2.11639000           0.48097000         
H                    -0.03954000           3.06883000           0.79434000         
H                     0.20806000           2.34920000          -0.80693000         
H                    -2.81718000          -1.16894000           0.64015000         
H                    -1.43848000          -1.21898000           1.77092000         
H                    -1.36108000          -2.07264000           0.21066000         
H                    -1.03007000          -0.59816000          -2.00440000         
H                    -1.14868000           1.18274000          -1.84366000         
H                    -2.58348000           0.14860000          -1.55787000         
22
Image 9 energy:-0.00500 
C                     2.01531000          -1.19121000          -0.83733000         
C                     2.22164000          -0.95930000           0.61788000         
C                    -0.35550000           0.92038000           0.75078000         
C                     0.32696000           2.17231000           0.26978000         
C                    -1.13747000           0.07732000           0.05471000         
C                    -1.72096000          -1.15471000           0.71024000         
C                    -1.48275000           0.22622000          -1.40782000         
H                     1.93996000          -0.23648000          -1.38904000         
H                     1.09170000          -1.75348000          -1.03175000         
H                     2.84615000          -1.76377000          -1.30144000         
H                     2.90394000          -0.17680000           0.96511000         
H                     1.81460000          -1.64486000           1.36521000         
H                    -0.18948000           0.69124000           1.80775000         
H                     1.40677000           2.12392000           0.50613000         
H                    -0.07081000           3.07150000           0.77673000         
H                     0.24028000           2.32280000          -0.80599000         
H                    -2.82337000          -1.16085000           0.63940000         
H                    -1.44568000          -1.22214000           1.77231000         
H                    -1.37221000          -2.07593000           0.20851000         
H                    -1.10375000          -0.63475000          -1.98687000         
H                    -1.07863000           1.13995000          -1.86124000         
H                    -2.57858000           0.23610000          -1.54903000         
22
Image 10 energy:-0.00511 
C                     2.00515000          -1.20059000          -0.83582000         
C                     2.23005000          -0.94947000           0.61686000         
C                    -0.35847000           0.92458000           0.75474000         
C                     0.32712000           2.17360000           0.27661000         
C                    -1.13337000           0.07139000           0.05022000         
C                    -1.71961000          -1.15643000           0.70626000         
C                    -1.48095000           0.22805000          -1.41049000         
H                     1.90432000          -0.26248000          -1.40168000         
H                     1.09679000          -1.79949000          -1.00550000         
H                     2.84526000          -1.75371000          -1.30224000         
H                     2.88131000          -0.14790000           0.95501000         
H                     1.85948000          -1.64543000           1.36623000         
H                    -0.19142000           0.68907000           1.81134000         
H                     1.40247000           2.13557000           0.50413000         
H                    -0.07231000           3.06407000           0.78882000         
H                     0.21635000           2.33976000          -0.80656000         
H                    -2.82103000          -1.16934000           0.62462000         
H                    -1.45302000          -1.21983000           1.77134000         
H                    -1.36078000          -2.07550000           0.20932000         
H                    -1.18474000          -0.66843000          -1.97950000         
H                    -1.00296000           1.09554000          -1.87981000         
H                    -2.57089000           0.33305000          -1.54129000         
22
Image 11 energy:-0.00493 
C                     2.00552000          -1.21312000          -0.83167000         
C                     2.24517000          -0.96213000           0.61439000         
C                    -0.36281000           0.92700000           0.75266000         
C                     0.31274000           2.18544000           0.27993000         
C                    -1.13757000           0.08062000           0.05127000         
C                    -1.71606000          -1.15449000           0.70329000         
C                    -1.47784000           0.22828000          -1.41263000         
H                     1.85520000          -0.26947000          -1.38688000         
H                     1.10790000          -1.83111000          -0.98646000         
H                     2.84708000          -1.74506000          -1.32299000         
H                     2.87888000          -0.13074000           0.93536000         
H                     1.90497000          -1.66068000           1.38010000         
H                    -0.19932000           0.69496000           1.80972000         
H                     1.39685000           2.12859000           0.47603000         
H                    -0.05971000           3.06973000           0.82664000         
H                     0.18588000           2.37182000          -0.78447000         
H                    -2.81614000          -1.18426000           0.60886000         
H                    -1.46138000          -1.21318000           1.77051000         
H                    -1.33701000          -2.06990000           0.21281000         
H                    -1.20192000          -0.69080000          -1.96966000         
H                    -0.97181000           1.08054000          -1.89257000         
H                    -2.57154000           0.35899000          -1.54924000         
22
Image 12 energy:-0.00514 
C                     2.00231000          -1.20341000          -0.83283000         
C                     2.24522000          -0.96883000           0.62021000         
C                    -0.36725000           0.93412000           0.75331000         
C                     0.32131000           2.18142000           0.27496000         
C                    -1.13750000           0.07740000           0.04942000         
C                    -1.71805000          -1.15487000           0.70594000         
C                    -1.47921000           0.22691000          -1.41286000         
H                     1.84513000          -0.25911000          -1.37449000         
H                     1.11913000          -1.83409000          -0.99725000         
H                     2.85728000          -1.71036000          -1.32611000         
H                     2.90790000          -0.17189000           0.95354000         
H                     1.88548000          -1.67073000           1.36995000         
H                    -0.20032000           0.69979000           1.81005000         
H                     1.40959000           2.11057000           0.44412000         
H                    -0.02803000           3.06467000           0.83732000         
H                     0.15813000           2.38333000          -0.79440000         
H                    -2.81644000          -1.18095000           0.61018000         
H                    -1.46555000          -1.20820000           1.77307000         
H                    -1.34271000          -2.07295000           0.22231000         
H                    -1.11897000          -0.64127000          -1.98481000         
H                    -1.05498000           1.12637000          -1.87091000         
H                    -2.57016000           0.26077000          -1.55556000         
22
Image 13 energy:-0.00497 
C                     2.01113000          -1.18955000          -0.83756000         
C                     2.23114000          -0.96610000           0.61677000         
C                    -0.36173000           0.92578000           0.75266000         
C                     0.32737000           2.17259000           0.27096000         
C                    -1.14143000           0.07870000           0.05471000         
C                    -1.73020000          -1.14823000           0.71285000         
C                    -1.47200000           0.21928000          -1.41161000         
H                     1.85210000          -0.23340000          -1.37483000         
H                     1.12728000          -1.82148000          -1.01680000         
H                     2.87360000          -1.69148000          -1.32953000         
H                     2.90527000          -0.17869000           0.96095000         
H                     1.85749000          -1.66861000           1.36194000         
H                    -0.19901000           0.69731000           1.81061000         
H                     1.41484000           2.10026000           0.45850000         
H                    -0.02983000           3.06460000           0.82013000         
H                     0.19186000           2.35902000          -0.79701000         
H                    -2.83214000          -1.16377000           0.62846000         
H                    -1.46579000          -1.20986000           1.77791000         
H                    -1.36798000          -2.06963000           0.21924000         
H                    -1.05581000          -0.63313000          -1.98815000         
H                    -1.08485000           1.15124000          -1.85565000         
H                    -2.57094000           0.19651000          -1.56628000         
22
Image 14 energy:-0.00515 
C                     2.00931000          -1.18125000          -0.84406000         
C                     2.22940000          -0.96451000           0.61419000         
C                    -0.36510000           0.92808000           0.75642000         
C                     0.32844000           2.17205000           0.27564000         
C                    -1.13642000           0.07280000           0.05386000         
C                    -1.73289000          -1.14749000           0.71616000         
C                    -1.46546000           0.21104000          -1.41303000         
H                     1.88645000          -0.22868000          -1.38230000         
H                     1.11293000          -1.78796000          -1.03195000         
H                     2.85981000          -1.70479000          -1.32583000         
H                     2.90097000          -0.18116000           0.96546000         
H                     1.84255000          -1.66466000           1.35296000         
H                    -0.20842000           0.70173000           1.81641000         
H                     1.40719000           2.11857000           0.49442000         
H                    -0.05563000           3.06664000           0.79424000         
H                     0.21322000           2.34067000          -0.80438000         
H                    -2.83311000          -1.14911000           0.63592000         
H                    -1.46692000          -1.20771000           1.78023000         
H                    -1.38497000          -2.07221000           0.22506000         
H                    -1.14094000          -0.68477000          -1.96799000         
H                    -0.99807000           1.08229000          -1.88408000         
H                    -2.55478000           0.29091000          -1.56355000         
22
Image 15 energy:-0.00501 
C                     2.01206000          -1.18467000          -0.84421000         
C                     2.22319000          -0.95969000           0.61239000         
C                    -0.36081000           0.92394000           0.75464000         
C                     0.32912000           2.17113000           0.27639000         
C                    -1.13744000           0.07337000           0.05462000         
C                    -1.72676000          -1.15036000           0.71536000         
C                    -1.47168000           0.21553000          -1.41066000         
H                     1.93145000          -0.22503000          -1.39333000         
H                     1.09002000          -1.74849000          -1.03686000         
H                     2.84357000          -1.75381000          -1.31188000         
H                     2.88235000          -0.15931000           0.96097000         
H                     1.83071000          -1.65257000           1.35807000         
H                    -0.20426000           0.69595000           1.81513000         
H                     1.40601000           2.12451000           0.52557000         
H                    -0.07736000           3.07066000           0.77580000         
H                     0.24411000           2.32762000          -0.80850000         
H                    -2.82380000          -1.18930000           0.58719000         
H                    -1.50325000          -1.18382000           1.79219000         
H                    -1.32727000          -2.07330000           0.25550000         
H                    -1.18879000          -0.70172000          -1.96112000         
H                    -0.96710000           1.06368000          -1.89063000         
H                    -2.56086000           0.34232000          -1.55584000         
22
Image 16 energy:-0.00513 
C                     2.00939000          -1.18841000          -0.83936000         
C                     2.23668000          -0.96614000           0.61639000         
C                    -0.36665000           0.93007000           0.75566000         
C                     0.32694000           2.17319000           0.27220000         
C                    -1.13973000           0.07653000           0.05381000         
C                    -1.72816000          -1.15121000           0.71188000         
C                    -1.47259000           0.21924000          -1.41143000         
H                     1.88832000          -0.24057000          -1.38215000         
H                     1.10958000          -1.79729000          -1.01646000         
H                     2.85536000          -1.71756000          -1.32426000         
H                     2.91246000          -0.18936000           0.96553000         
H                     1.85565000          -1.66816000           1.35499000         
H                    -0.20704000           0.70349000           1.81417000         
H                     1.40661000           2.11731000           0.47832000         
H                    -0.04638000           3.06614000           0.80026000         
H                     0.20247000           2.34535000          -0.80213000         
H                    -2.82604000          -1.17831000           0.60565000         
H                    -1.48634000          -1.19834000           1.78180000         
H                    -1.34753000          -2.07262000           0.23715000         
H                    -1.12550000          -0.65909000          -1.97637000         
H                    -1.03194000           1.10881000          -1.87346000         