21
Image 1 energy:-0.02003 
C                    -2.19719000          -1.07628000          -0.23091000         
C                    -1.81974000           0.34869000          -0.47143000         
C                    -1.59452000           1.29279000           0.66425000         
C                     1.60981000          -1.26460000           0.67191000         
C                     1.64705000          -0.32546000          -0.54063000         
C                     2.24362000           1.04773000          -0.20612000         
H                    -2.06099000          -1.69470000          -1.13231000         
H                    -3.26021000          -1.18320000           0.07379000         
H                     0.62162000          -0.19217000          -0.92286000         
H                    -1.97984000           0.76708000          -1.46765000         
H                    -1.04458000           2.19224000           0.34942000         
H                    -2.54767000           1.64104000           1.11559000         
H                     1.00676000          -0.83102000           1.48499000         
H                     2.62125000          -1.44257000           1.06943000         
H                     1.17260000          -2.24073000           0.41424000         
H                     2.22566000          -0.79339000          -1.35185000         
H                     1.65675000           1.54495000           0.58432000         
H                     3.27985000           0.95589000           0.15426000         
H                     2.25269000           1.71056000          -1.08630000         
H                    -1.59809000          -1.51829000           0.58194000         
H                    -1.02460000           0.81194000           1.47767000         
21
Image 2 energy:-0.02003 
C                    -2.19491000          -1.07499000          -0.23199000         
C                    -1.81992000           0.35188000          -0.47338000         
C                    -1.59350000           1.29284000           0.66619000         
C                     1.60847000          -1.26563000           0.67388000         
C                     1.65042000          -0.32924000          -0.54110000         
C                     2.23762000           1.04830000          -0.20713000         
H                    -2.07851000          -1.68985000          -1.13652000         
H                    -3.25109000          -1.18240000           0.09655000         
H                     0.62667000          -0.19806000          -0.93358000         
H                    -1.97766000           0.77109000          -1.46976000         
H                    -1.06373000           2.20376000           0.34674000         
H                    -2.54696000           1.62186000           1.13402000         
H                     0.99787000          -0.83357000           1.48216000         
H                     2.61811000          -1.43882000           1.08011000         
H                     1.17684000          -2.24395000           0.41412000         
H                     2.24300000          -0.79728000          -1.34811000         
H                     1.64919000           1.54817000           0.57476000         
H                     3.27185000           0.96185000           0.16383000         
H                     2.24903000           1.70535000          -1.08841000         
H                    -1.57679000          -1.52199000           0.56583000         
H                    -1.00645000           0.81811000           1.47001000         
21
Image 3 energy:-0.02002 
C                    -2.19651000          -1.07253000          -0.23400000         
C                    -1.81809000           0.35275000          -0.47235000         
C                    -1.59735000           1.29159000           0.66734000         
C                     1.60977000          -1.26425000           0.67538000         
C                     1.65386000          -0.33154000          -0.54093000         
C                     2.23797000           1.04726000          -0.20907000         
H                    -2.10747000          -1.67993000          -1.14794000         
H                    -3.24453000          -1.17227000           0.11939000         
H                     0.63186000          -0.20591000          -0.93563000         
H                    -1.97243000           0.77288000          -1.46830000         
H                    -1.08681000           2.21291000           0.35044000         
H                    -2.55095000           1.60008000           1.14545000         
H                     0.99292000          -0.83157000           1.47877000         
H                     2.61796000          -1.43102000           1.08638000         
H                     1.18402000          -2.24541000           0.41802000         
H                     2.24441000          -0.80111000          -1.34268000         
H                     1.63281000           1.55144000           0.56353000         
H                     3.26695000           0.96209000           0.17372000         
H                     2.26129000           1.69991000          -1.09536000         
H                    -1.56464000          -1.53111000           0.54520000         
H                    -0.99146000           0.82181000           1.46216000         
21
Image 4 energy:-0.02001 
C                    -2.19538000          -1.07277000          -0.23345000         
C                    -1.82028000           0.35422000          -0.47449000         
C                    -1.59429000           1.29166000           0.66836000         
C                     1.60505000          -1.26399000           0.67641000         
C                     1.65895000          -0.33397000          -0.54309000         
C                     2.23503000           1.04833000          -0.20813000         
H                    -2.12790000          -1.67592000          -1.15017000         
H                    -3.23451000          -1.17457000           0.14427000         
H                     0.63976000          -0.21223000          -0.94947000         
H                    -1.98110000           0.77585000          -1.46920000         
H                    -1.10310000           2.22176000           0.34654000         
H                    -2.54440000           1.58208000           1.16423000         
H                     0.97902000          -0.83275000           1.47303000         
H                     2.60995000          -1.42631000           1.09849000         
H                     1.18578000          -2.24734000           0.41608000         
H                     2.26160000          -0.80309000          -1.33891000         
H                     1.62429000           1.55341000           0.55543000         
H                     3.25982000           0.96833000           0.18708000         
H                     2.26669000           1.69742000          -1.09505000         
H                    -1.54558000          -1.53583000           0.52853000         
H                    -0.96957000           0.82967000           1.45120000         
21
Image 5 energy:-0.01998 
C                    -2.19618000          -1.07091000          -0.23667000         
C                    -1.82019000           0.35673000          -0.47429000         
C                    -1.59682000           1.29029000           0.67102000         
C                     1.60646000          -1.26320000           0.67909000         
C                     1.66199000          -0.33657000          -0.54209000         
C                     2.23476000           1.04740000          -0.21128000         
H                    -2.14734000          -1.66793000          -1.15868000         
H                    -3.22842000          -1.16896000           0.15866000         
H                     0.64463000          -0.21908000          -0.95447000         
H                    -1.98274000           0.78013000          -1.46800000         
H                    -1.12260000           2.22959000           0.35007000         
H                    -2.54593000           1.56308000           1.17692000         
H                     0.97390000          -0.83219000           1.47128000         
H                     2.61037000          -1.41872000           1.10761000         
H                     1.19203000          -2.24855000           0.41997000         
H                     2.26612000          -0.80681000          -1.33278000         
H                     1.61246000           1.55753000           0.54312000         
H                     3.25480000           0.96975000           0.19250000         
H                     2.27222000           1.69060000          -1.10147000         
H                    -1.53464000          -1.54274000           0.51075000         
H                    -0.95532000           0.83160000           1.44457000         
21
Image 6 energy:-0.01998 
C                    -2.19411000          -1.06961000          -0.23996000         
C                    -1.81472000           0.35585000          -0.47292000         
C                    -1.59736000           1.29047000           0.67261000         
C                     1.60963000          -1.26259000           0.68144000         
C                     1.65542000          -0.33731000          -0.54210000         
C                     2.23047000           1.04676000          -0.21371000         
H                    -2.12914000          -1.66918000          -1.16122000         
H                    -3.23523000          -1.16863000           0.13962000         
H                     0.63614000          -0.21829000          -0.94297000         
H                    -1.96796000           0.78105000          -1.46683000         
H                    -1.11027000           2.22422000           0.35712000         
H                    -2.55184000           1.57390000           1.16825000         
H                     0.98547000          -0.82920000           1.47830000         
H                     2.61514000          -1.42284000           1.09824000         
H                     1.19195000          -2.24885000           0.42553000         
H                     2.26032000          -0.80924000          -1.33746000         
H                     1.62353000           1.55272000           0.54944000         
H                     3.25788000           0.96867000           0.18441000         
H                     2.26422000           1.69436000          -1.10488000         
H                    -1.54785000          -1.53806000           0.52088000         
H                    -0.97461000           0.82867000           1.45669000         
21
Image 7 energy:-0.01999 
C                    -2.19509000          -1.06997000          -0.24178000         
C                    -1.81421000           0.35712000          -0.47299000         
C                    -1.60104000           1.29020000           0.67501000         
C                     1.61368000          -1.26381000           0.68192000         
C                     1.65187000          -0.33600000          -0.53895000         
C                     2.23533000           1.04585000          -0.21625000         
H                    -2.10729000          -1.67350000          -1.15660000         
H                    -3.24254000          -1.17089000           0.11132000         
H                     0.62814000          -0.21345000          -0.93742000         
H                    -1.96645000           0.78291000          -1.46714000         
H                    -1.09974000           2.21949000           0.36007000         
H                    -2.55857000           1.58485000           1.15413000         
H                     0.99496000          -0.83190000           1.48422000         
H                     2.62360000          -1.42298000           1.09519000         
H                     1.19241000          -2.24726000           0.42975000         
H                     2.24469000          -0.80735000          -1.33977000         
H                     1.62862000           1.55634000           0.55218000         
H                     3.26324000           0.96567000           0.16302000         
H                     2.25373000           1.69092000          -1.10544000         
H                    -1.56035000          -1.53342000           0.53440000         
H                    -0.99113000           0.82217000           1.46804000         
21
Image 8 energy:-0.02000 
C                    -2.19402000          -1.07012000          -0.24461000         
C                    -1.81146000           0.35690000          -0.47087000         
C                    -1.60245000           1.29051000           0.67593000         
C                     1.61671000          -1.26285000           0.68372000         
C                     1.64743000          -0.33574000          -0.53802000         
C                     2.23299000           1.04510000          -0.21928000         
H                    -2.08895000          -1.67349000          -1.15968000         
H                    -3.24935000          -1.17186000           0.09057000         
H                     0.62334000          -0.21250000          -0.92362000         
H                    -1.95737000           0.78196000          -1.46650000         
H                    -1.07981000           2.20802000           0.37233000         
H                    -2.56081000           1.60578000           1.14169000         
H                     1.00480000          -0.83031000           1.49057000         
H                     2.62891000          -1.42332000           1.08557000         
H                     1.19344000          -2.24750000           0.43190000         
H                     2.23444000          -0.80831000          -1.34222000         
H                     1.64588000           1.55150000           0.55717000         
H                     3.26765000           0.96096000           0.15689000         
H                     2.24857000           1.69442000          -1.10915000         
H                    -1.57730000          -1.53217000           0.54399000         
H                    -1.01428000           0.81349000           1.47758000         
21
Image 9 energy:-0.02001 
C                    -2.19421000          -1.06987000          -0.24672000         
C                    -1.80974000           0.35575000          -0.47026000         
C                    -1.60228000           1.29008000           0.67808000         
C                     1.61863000          -1.26279000           0.68467000         
C                     1.64310000          -0.33502000          -0.53765000         
C                     2.23519000           1.04490000          -0.22040000         
H                    -2.06108000          -1.67929000          -1.15337000         
H                    -3.25701000          -1.17469000           0.05915000         
H                     0.61421000          -0.21023000          -0.91685000         
H                    -1.95298000           0.78369000          -1.46460000         
H                    -1.06692000           2.20225000           0.37063000         
H                    -2.56349000           1.61692000           1.12922000         
H                     1.01547000          -0.82572000           1.49610000         
H                     2.63272000          -1.43202000           1.08023000         
H                     1.18684000          -2.24410000           0.43742000         
H                     2.22577000          -0.80822000          -1.34801000         
H                     1.64570000           1.54981000           0.56616000         
H                     3.27245000           0.96333000           0.13598000         
H                     2.23449000           1.69622000          -1.10699000         
H                    -1.59507000          -1.52373000           0.56135000         
H                    -1.02943000           0.81138000           1.49052000         
21
Image 10 energy:-0.02001 
C                    -2.19364000          -1.07031000          -0.25051000         
C                    -1.80994000           0.35790000          -0.46903000         
C                    -1.60527000           1.28941000           0.68069000         
C                     1.62268000          -1.26247000           0.68694000         
C                     1.64019000          -0.33489000          -0.53460000         
C                     2.23564000           1.04377000          -0.22538000         
H                    -2.03976000          -1.68119000          -1.15242000         
H                    -3.26211000          -1.17897000           0.03134000         
H                     0.60939000          -0.20612000          -0.90828000         
H                    -1.95702000           0.78695000          -1.46298000         
H                    -1.05051000           2.19092000           0.38434000         
H                    -2.56511000           1.63508000           1.11810000         
H                     1.02429000          -0.82724000           1.50268000         
H                     2.64009000          -1.42891000           1.07631000         
H                     1.18958000          -2.24282000           0.44236000         
H                     2.21183000          -0.80914000          -1.34787000         
H                     1.66574000           1.55006000           0.56589000         
H                     3.27775000           0.95623000           0.12599000         
H                     2.23194000           1.69609000          -1.11268000         
H                    -1.61190000          -1.52068000           0.57064000         
H                    -1.05034000           0.80081000           1.49887000         
21
Image 11 energy:-0.02001 
C                    -2.19116000          -1.06906000          -0.25759000         
C                    -1.80718000           0.35916000          -0.46712000         
C                    -1.60312000           1.28717000           0.68633000         
C                     1.62330000          -1.25939000           0.69249000         
C                     1.63584000          -0.33744000          -0.53419000         
C                     2.23263000           1.04295000          -0.23100000         
H                    -2.01718000          -1.67822000          -1.15722000         
H                    -3.26499000          -1.18108000           0.00249000         
H                     0.60418000          -0.21323000          -0.90033000         
H                    -1.95082000           0.79360000          -1.45898000         
H                    -1.03771000           2.18487000           0.39418000         
H                    -2.56452000           1.64051000           1.11699000         
H                     1.03061000          -0.81795000           1.50937000         
H                     2.64198000          -1.42720000           1.07533000         
H                     1.18705000          -2.24185000           0.45318000         
H                     2.20810000          -0.81536000          -1.34874000         
H                     1.66096000           1.55018000           0.56414000         
H                     3.27651000           0.96009000           0.10838000         
H                     2.21718000           1.69214000          -1.11951000         
H                    -1.62482000          -1.51884000           0.57424000         
H                    -1.06068000           0.79370000           1.50910000         
21
Image 12 energy:-0.01999 
C                    -2.18717000          -1.06633000          -0.26382000         
C                    -1.80442000           0.36369000          -0.46713000         
C                    -1.60282000           1.28398000           0.69279000         
C                     1.62425000          -1.25724000           0.69830000         
C                     1.63587000          -0.34280000          -0.53365000         
C                     2.22504000           1.04215000          -0.23792000         
H                    -2.00972000          -1.67194000          -1.16573000         
H                    -3.26194000          -1.18087000          -0.00851000         
H                     0.60212000          -0.21996000          -0.90413000         
H                    -1.94890000           0.80277000          -1.45691000         
H                    -1.03856000           2.18448000           0.40696000         
H                    -2.56439000           1.63341000           1.12198000         
H                     1.03278000          -0.80967000           1.51239000         
H                     2.64277000          -1.42521000           1.08434000         
H                     1.18592000          -2.23790000           0.46873000         
H                     2.20547000          -0.82303000          -1.34543000         
H                     1.65715000           1.54867000           0.55639000         
H                     3.27122000           0.96519000           0.10461000         
H                     2.20956000           1.68918000          -1.12935000         
H                    -1.62304000          -1.51773000           0.56876000         
H                    -1.05954000           0.78348000           1.51257000         
21
Image 13 energy:-0.02000 
C                    -2.18406000          -1.06477000          -0.27077000         
C                    -1.80372000           0.36694000          -0.46564000         
C                    -1.59920000           1.28186000           0.69732000         
C                     1.62297000          -1.25463000           0.70399000         
C                     1.63388000          -0.34635000          -0.53242000         
C                     2.22008000           1.04115000          -0.24344000         
H                    -2.00984000          -1.66355000          -1.17734000         
H                    -3.25704000          -1.18289000          -0.01024000         
H                     0.60296000          -0.23331000          -0.90606000         
H                    -1.94527000           0.81124000          -1.45341000         
H                    -1.04076000           2.18626000           0.41671000         
H                    -2.56069000           1.62439000           1.13964000         
H                     1.02560000          -0.80883000           1.51488000         
H                     2.64243000          -1.40961000           1.09128000         
H                     1.19509000          -2.24335000           0.47465000         
H                     2.21264000          -0.82940000          -1.33834000         
H                     1.64134000           1.55423000           0.54129000         
H                     3.26232000           0.96949000           0.10234000         
H                     2.20457000           1.67897000          -1.13960000         
H                    -1.61209000          -1.52211000           0.55419000         
H                    -1.05104000           0.78040000           1.51105000         
21
Image 14 energy:-0.01999 
C                    -2.18077000          -1.06229000          -0.27497000         
C                    -1.80049000           0.37001000          -0.46582000         
C                    -1.59726000           1.27897000           0.70244000         
C                     1.62105000          -1.25257000           0.70808000         
C                     1.63636000          -0.35141000          -0.53325000         
C                     2.21157000           1.04140000          -0.24744000         
H                    -2.02065000          -1.65583000          -1.18854000         
H                    -3.25097000          -1.17870000           0.00051000         
H                     0.60709000          -0.24171000          -0.91304000         
H                    -1.93974000           0.81720000          -1.45251000         
H                    -1.04682000           2.19107000           0.41825000         
H                    -2.55798000           1.60832000           1.14809000         
H                     1.02130000          -0.80004000           1.51348000         
H                     2.63804000          -1.40925000           1.10167000         
H                     1.19035000          -2.23953000           0.48520000         
H                     2.21849000          -0.83597000          -1.33380000         
H                     1.62804000           1.55402000           0.53172000         
H                     3.25319000           0.97702000           0.10850000         
H                     2.20102000           1.67557000          -1.14787000         
H                    -1.60151000          -1.52583000           0.54024000         
H                    -1.03550000           0.77664000           1.50924000         
21
Image 15 energy:-0.01998 
C                    -2.18069000          -1.06084000          -0.27639000         
C                    -1.80084000           0.37228000          -0.46708000         
C                    -1.59556000           1.27682000           0.70431000         
C                     1.61803000          -1.25039000           0.71085000         
C                     1.64067000          -0.35476000          -0.53468000         
C                     2.20918000           1.04144000          -0.24932000         
H                    -2.04066000          -1.64954000          -1.19641000         
H                    -3.24450000          -1.17698000           0.02001000         
H                     0.61302000          -0.25276000          -0.92549000         
H                    -1.93911000           0.82132000          -1.45310000         
H                    -1.05907000           2.19413000           0.43241000         
H                    -2.55500000           1.59523000           1.16746000         
H                     1.00977000          -0.79764000           1.50912000         
H                     2.63253000          -1.39999000           1.11333000         
H                     1.19469000          -2.24089000           0.48804000         
H                     2.23417000          -0.84012000          -1.32804000         
H                     1.61116000           1.55601000           0.52032000         
H                     3.24567000           0.98361000           0.11619000         
H                     2.20542000           1.67077000          -1.15169000         
H                    -1.58265000          -1.52935000           0.52486000         
H                    -1.02509000           0.77371000           1.50026000         
21
Image 16 energy:-0.01997 
C                    -2.18118000          -1.05925000          -0.28082000         
C                    -1.79990000           0.37286000          -0.46509000         
C                    -1.59460000           1.27519000           0.70775000         
C                     1.61586000          -1.24833000           0.71367000         
C                     1.64329000          -0.35680000          -0.53439000         
C                     2.20720000           1.04106000          -0.25269000         
H                    -2.05777000          -1.64178000          -1.20430000         
H                    -3.23965000          -1.17458000           0.03482000         
H                     0.61924000          -0.26021000          -0.92940000         
H                    -1.93768000           0.82582000          -1.44917000         
H                    -1.07980000           2.20726000           0.41961000         
H                    -2.55520000           1.56744000           1.18094000         
H                     0.99998000          -0.79597000           1.50651000         
H                     2.62821000          -1.39187000           1.12285000         
H                     1.19865000          -2.24294000           0.48965000         
H                     2.24140000          -0.84381000          -1.32138000         
H                     1.60594000           1.55865000           0.50792000         
H                     3.24061000           0.98540000           0.12598000         
H                     2.21273000           1.66562000          -1.15835000         
H                    -1.57417000          -1.53713000           0.50509000         
H                    -1.00068000           0.78362000           1.49762000         
21
Image 17 energy:-0.01997 
C                    -2.18139000          -1.05839000          -0.28267000         
C                    -1.80064000           0.37607000          -0.46674000         
C                    -1.59401000           1.27167000           0.71115000         
C                     1.61331000          -1.24554000           0.71678000         
C                     1.64863000          -0.36081000          -0.53501000         
C                     2.20551000           1.04187000          -0.25573000         
H                    -2.08265000          -1.63291000          -1.21670000         
H                    -3.23339000          -1.17101000           0.05384000         
H                     0.62743000          -0.26771000          -0.94187000         
H                    -1.94149000           0.83111000          -1.44950000         
H                    -1.08404000           2.20559000           0.43546000         
H                    -2.55153000           1.55865000           1.19545000         
H                     0.99082000          -0.78963000           1.50182000         
H                     2.62194000          -1.38664000           1.13590000         
H                     1.19673000          -2.23970000           0.49663000         