10
Image 1 energy:-0.00417 
C                     1.18187000           0.06268000          -0.32216000         
C                     0.03169000          -0.47293000           0.05512000         
C                    -1.29256000           0.21943000           0.01993000         
H                     2.50104000           2.00292000           3.44322000         
H                     1.23710000           1.07985000          -0.69557000         
H                     2.10947000          -0.49346000          -0.27154000         
H                     0.02615000          -1.49575000           0.42306000         
H                    -1.99814000          -0.32281000          -0.61480000         
H                    -1.73474000           0.26399000           1.01856000         
H                    -1.20023000           1.23740000          -0.36066000         
10
Image 2 energy:-0.00415 
C                     1.18277000           0.06466000          -0.31879000         
C                     0.03248000          -0.47200000           0.05668000         
C                    -1.29223000           0.21938000           0.01995000         
H                     2.47336000           1.96412000           3.37605000         
H                     1.23771000           1.08199000          -0.69175000         
H                     2.11074000          -0.49075000          -0.26703000         
H                     0.02721000          -1.49497000           0.42422000         
H                    -1.99646000          -0.32299000          -0.61616000         
H                    -1.73592000           0.26302000           1.01794000         
H                    -1.20010000           1.23765000          -0.35990000         
10
Image 3 energy:-0.00412 
C                     1.18367000           0.06663000          -0.31539000         
C                     0.03327000          -0.47107000           0.05820000         
C                    -1.29190000           0.21935000           0.01996000         
H                     2.44570000           1.92518000           3.30896000         
H                     1.23840000           1.08422000          -0.68767000         
H                     2.11198000          -0.48811000          -0.26260000         
H                     0.02825000          -1.49423000           0.42523000         
H                    -1.99483000          -0.32320000          -0.61744000         
H                    -1.73704000           0.26213000           1.01735000         
H                    -1.19998000           1.23789000          -0.35921000         
10
Image 4 energy:-0.00408 
C                     1.18456000           0.06856000          -0.31201000         
C                     0.03406000          -0.47015000           0.05976000         
C                    -1.29155000           0.21934000           0.01997000         
H                     2.41791000           1.88663000           3.24169000         
H                     1.23906000           1.08635000          -0.68375000         
H                     2.11324000          -0.48546000          -0.25808000         
H                     0.02928000          -1.49345000           0.42638000         
H                    -1.99315000          -0.32336000          -0.61877000         
H                    -1.73819000           0.26123000           1.01672000         
H                    -1.19982000           1.23815000          -0.35849000         
10
Image 5 energy:-0.00404 
C                     1.18546000           0.07049000          -0.30861000         
C                     0.03484000          -0.46923000           0.06130000         
C                    -1.29120000           0.21932000           0.01997000         
H                     2.39009000           1.84799000           3.17449000         
H                     1.23973000           1.08851000          -0.67978000         
H                     2.11447000          -0.48285000          -0.25359000         
H                     0.03030000          -1.49269000           0.42748000         
H                    -1.99147000          -0.32352000          -0.62010000         
H                    -1.73934000           0.26035000           1.01609000         
H                    -1.19965000           1.23842000          -0.35780000         
10
Image 6 energy:-0.00400 
C                     1.18635000           0.07240000          -0.30521000         
C                     0.03563000          -0.46831000           0.06284000         
C                    -1.29084000           0.21933000           0.01998000         
H                     2.36214000           1.80953000           3.10722000         
H                     1.24041000           1.09063000          -0.67582000         
H                     2.11572000          -0.48023000          -0.24905000         
H                     0.03131000          -1.49193000           0.42859000         
H                    -1.98981000          -0.32364000          -0.62142000         
H                    -1.74045000           0.25948000           1.01547000         
H                    -1.19945000           1.23870000          -0.35708000         
10
Image 7 energy:-0.00395 
C                     1.18724000           0.07431000          -0.30182000         
C                     0.03641000          -0.46739000           0.06441000         
C                    -1.29047000           0.21933000           0.01998000         
H                     2.33431000           1.77110000           3.03989000         
H                     1.24108000           1.09274000          -0.67187000         
H                     2.11693000          -0.47766000          -0.24457000         
H                     0.03232000          -1.49115000           0.42976000         
H                    -1.98810000          -0.32374000          -0.62279000         
H                    -1.74161000           0.25859000           1.01482000         
H                    -1.19924000           1.23899000          -0.35636000         
10
Image 8 energy:-0.00389 
C                     1.18812000           0.07619000          -0.29840000         
C                     0.03718000          -0.46648000           0.06597000         
C                    -1.29010000           0.21934000           0.01997000         
H                     2.30643000           1.73294000           2.97243000         
H                     1.24174000           1.09482000          -0.66793000         
H                     2.11814000          -0.47509000          -0.24005000         
H                     0.03331000          -1.49039000           0.43090000         
H                    -1.98638000          -0.32381000          -0.62418000         
H                    -1.74277000           0.25767000           1.01415000         
H                    -1.19901000           1.23929000          -0.35560000         
10
Image 9 energy:-0.00382 
C                     1.18901000           0.07808000          -0.29499000         
C                     0.03796000          -0.46558000           0.06751000         
C                    -1.28972000           0.21936000           0.01997000         
H                     2.27849000           1.69465000           2.90507000         
H                     1.24245000           1.09696000          -0.66387000         
H                     2.11937000          -0.47250000          -0.23544000         
H                     0.03429000          -1.48965000           0.43199000         
H                    -1.98468000          -0.32388000          -0.62553000         
H                    -1.74388000           0.25679000           1.01350000         
H                    -1.19878000           1.23959000          -0.35487000         
10
Image 10 energy:-0.00374 
C                     1.18989000           0.07998000          -0.29152000         
C                     0.03872000          -0.46469000           0.06903000         
C                    -1.28934000           0.21938000           0.01996000         
H                     2.25071000           1.65649000           2.83759000         
H                     1.24311000           1.09905000          -0.65990000         
H                     2.12056000          -0.46995000          -0.23095000         
H                     0.03527000          -1.48891000           0.43308000         
H                    -1.98301000          -0.32395000          -0.62687000         
H                    -1.74499000           0.25594000           1.01285000         
H                    -1.19854000           1.23989000          -0.35417000         
10
Image 11 energy:-0.00365 
C                     1.19075000           0.08185000          -0.28811000         
C                     0.03949000          -0.46380000           0.07057000         
C                    -1.28894000           0.21941000           0.01995000         
H                     2.22275000           1.61838000           2.77013000         
H                     1.24375000           1.10114000          -0.65589000         
H                     2.12177000          -0.46735000          -0.22633000         
H                     0.03626000          -1.48816000           0.43421000         
H                    -1.98128000          -0.32396000          -0.62827000         
H                    -1.74611000           0.25505000           1.01218000         
H                    -1.19825000           1.24021000          -0.35340000         
10
Image 12 energy:-0.00355 
C                     1.19164000           0.08375000          -0.28462000         
C                     0.04024000          -0.46293000           0.07205000         
C                    -1.28855000           0.21944000           0.01994000         
H                     2.19483000           1.58036000           2.70263000         
H                     1.24448000           1.10328000          -0.65174000         
H                     2.12295000          -0.46484000          -0.22180000         
H                     0.03720000          -1.48749000           0.43513000         
H                    -1.97963000          -0.32404000          -0.62950000         
H                    -1.74711000           0.25426000           1.01156000         
H                    -1.19800000           1.24049000          -0.35275000         
10
Image 13 energy:-0.00344 
C                     1.19253000           0.08565000          -0.28106000         
C                     0.04097000          -0.46207000           0.07351000         
C                    -1.28816000           0.21946000           0.01992000         
H                     2.16732000           1.54245000           2.63492000         
H                     1.24516000           1.10541000          -0.64756000         
H                     2.12412000          -0.46231000          -0.21729000         
H                     0.03812000          -1.48684000           0.43601000         
H                    -1.97803000          -0.32416000          -0.63070000         
H                    -1.74808000           0.25355000           1.01095000         
H                    -1.19776000           1.24074000          -0.35218000         
10
Image 14 energy:-0.00332 
C                     1.19339000           0.08756000          -0.27750000         
C                     0.04170000          -0.46124000           0.07495000         
C                    -1.28776000           0.21949000           0.01989000         
H                     2.13984000           1.50466000           2.56714000         
H                     1.24583000           1.10758000          -0.64328000         
H                     2.12531000          -0.45972000          -0.21262000         
H                     0.03904000          -1.48621000           0.43685000         
H                    -1.97646000          -0.32427000          -0.63183000         
H                    -1.74898000           0.25289000           1.01034000         
H                    -1.19749000           1.24098000          -0.35166000         
10
Image 15 energy:-0.00318 
C                     1.19427000           0.08948000          -0.27387000         
C                     0.04241000          -0.46043000           0.07632000         
C                    -1.28736000           0.21952000           0.01987000         
H                     2.11241000           1.46702000           2.49928000         
H                     1.24656000           1.10977000          -0.63891000         
H                     2.12648000          -0.45721000          -0.20805000         
H                     0.03993000          -1.48565000           0.43749000         
H                    -1.97497000          -0.32446000          -0.63281000         
H                    -1.74976000           0.25236000           1.00980000         
H                    -1.19724000           1.24118000          -0.35127000         
10
Image 16 energy:-0.00303 
C                     1.19515000           0.09142000          -0.27017000         
C                     0.04309000          -0.45964000           0.07766000         
C                    -1.28696000           0.21955000           0.01984000         
H                     2.08531000           1.42944000           2.43128000         
H                     1.24726000           1.11199000          -0.63442000         
H                     2.12762000          -0.45469000          -0.20352000         
H                     0.04079000          -1.48514000           0.43803000         
H                    -1.97356000          -0.32473000          -0.63366000         
H                    -1.75044000           0.25198000           1.00928000         
H                    -1.19701000           1.24132000          -0.35103000         
10
Image 17 energy:-0.00285 
C                     1.19606000           0.09338000          -0.26639000         
C                     0.04373000          -0.45889000           0.07894000         
C                    -1.28656000           0.21958000           0.01979000         
H                     2.05851000           1.39210000           2.36308000         
H                     1.24799000           1.11424000          -0.62983000         
H                     2.12879000          -0.45216000          -0.19892000         
H                     0.04159000          -1.48472000           0.43835000         
H                    -1.97226000          -0.32506000          -0.63435000         
H                    -1.75097000           0.25170000           1.00881000         
H                    -1.19678000           1.24141000          -0.35092000         
10
Image 18 energy:-0.00266 
C                     1.19696000           0.09538000          -0.26250000         
C                     0.04434000          -0.45819000           0.08013000         
C                    -1.28616000           0.21961000           0.01974000         
H                     2.03203000           1.35495000           2.29472000         
H                     1.24875000           1.11655000          -0.62505000         
H                     2.12994000          -0.44965000          -0.19434000         
H                     0.04235000          -1.48440000           0.43842000         
H                    -1.97108000          -0.32547000          -0.63484000         
H                    -1.75134000           0.25161000           1.00842000         
H                    -1.19656000           1.24145000          -0.35098000         
10
Image 19 energy:-0.00245 
C                     1.19788000           0.09743000          -0.25847000         
C                     0.04490000          -0.45754000           0.08124000         
C                    -1.28576000           0.21963000           0.01967000         
H                     2.00613000           1.31805000           2.22607000         
H                     1.24947000           1.11887000          -0.62020000         
H                     2.13105000          -0.44717000          -0.18989000         
H                     0.04306000          -1.48416000           0.43833000         
H                    -1.97003000          -0.32597000          -0.63515000         
H                    -1.75155000           0.25168000           1.00808000         
H                    -1.19634000           1.24142000          -0.35121000         
10
Image 20 energy:-0.00222 
C                     1.19882000           0.09950000          -0.25433000         
C                     0.04541000          -0.45695000           0.08225000         
C                    -1.28536000           0.21966000           0.01960000         
H                     1.98045000           1.28147000           2.15723000         
H                     1.25022000           1.12116000          -0.61537000         
H                     2.13220000          -0.44466000          -0.18534000         
H                     0.04371000          -1.48401000           0.43800000         
H                    -1.96912000          -0.32650000          -0.63526000         
H                    -1.75155000           0.25187000           1.00783000         
H                    -1.19613000           1.24135000          -0.35156000         
10
Image 21 energy:-0.00196 
C                     1.19978000           0.10164000          -0.25001000         
C                     0.04586000          -0.45642000           0.08314000         
C                    -1.28497000           0.21968000           0.01952000         
H                     1.95529000           1.24495000           2.08828000         
H                     1.25096000           1.12343000          -0.61066000         
H                     2.13330000          -0.44223000          -0.18109000         
H                     0.04433000          -1.48392000           0.43753000         
H                    -1.96838000          -0.32709000          -0.63517000         
H                    -1.75138000           0.25223000           1.00765000         
H                    -1.19592000           1.24122000          -0.35205000         
10
Image 22 energy:-0.00167 
C                     1.20081000           0.10385000          -0.24553000         
C                     0.04624000          -0.45595000           0.08393000         
C                    -1.28457000           0.21970000           0.01943000         
H                     1.93040000           1.20884000           2.01910000         
H                     1.25166000           1.12552000          -0.60640000         
H                     2.13439000          -0.43991000          -0.17707000         
H                     0.04487000          -1.48390000           0.43696000         
H                    -1.96777000          -0.32771000          -0.63493000         
H                    -1.75102000           0.25262000           1.00757000         
H                    -1.19571000           1.24108000          -0.35259000         
10
Image 23 energy:-0.00136 
C                     1.20191000           0.10616000          -0.24080000         
C                     0.04651000          -0.45559000           0.08459000         
C                    -1.28419000           0.21972000           0.01934000         
H                     1.90594000           1.17303000           1.94976000         
H                     1.25238000           1.12744000          -0.60266000         
H                     2.13546000          -0.43772000          -0.17353000         
H                     0.04536000          -1.48396000           0.43625000         
H                    -1.96736000          -0.32830000          -0.63451000         
H                    -1.75047000           0.25311000           1.00758000         
H                    -1.19549000           1.24091000          -0.35316000         
10
Image 24 energy:-0.00103 
C                     1.20313000           0.10860000          -0.23574000         
C                     0.04667000          -0.45533000           0.08507000         
C                    -1.28383000           0.21973000           0.01924000         
H                     1.88221000           1.13767000           1.88019000         
H                     1.25301000           1.12901000          -0.60000000         
H                     2.13647000          -0.43583000          -0.17077000         
H                     0.04576000          -1.48407000           0.43552000         
H                    -1.96715000          -0.32884000          -0.63400000         
H                    -1.74976000           0.25356000           1.00768000         
H                    -1.19527000           1.24075000          -0.35368000         
10
Image 25 energy:-0.00069 
C                     1.20453000           0.11122000          -0.23032000         
C                     0.04666000          -0.45523000           0.08537000         
C                    -1.28350000           0.21974000           0.01915000         
H                     1.85878000           1.10273000           1.81064000         
H                     1.25359000           1.13011000          -0.59876000         
H                     2.13745000          -0.43427000          -0.16909000         
H                     0.04606000          -1.48427000           0.43474000         
H                    -1.96715000          -0.32928000          -0.63334000         
H                    -1.74889000           0.25402000           1.00788000         
H                    -1.19501000           1.24060000          -0.35414000         
10
Image 26 energy:-0.00037 
C                     1.20611000           0.11405000          -0.22442000         
C                     0.04648000          -0.45530000           0.08546000         
C                    -1.28323000           0.21975000           0.01905000         
H                     1.83627000           1.06838000           1.74113000         
H                     1.25412000           1.13068000          -0.59926000         
H                     2.13835000          -0.43325000          -0.16899000         
H                     0.04626000          -1.48454000           0.43400000         
H                    -1.96741000          -0.32956000          -0.63265000         
H                    -1.74797000           0.25446000           1.00815000         
H                    -1.19473000           1.24048000          -0.35449000         
10
Image 27 energy:-0.00011 
C                     1.20827000           0.11737000          -0.21791000         
C                     0.04583000          -0.45575000           0.08529000         
C                    -1.28304000           0.21974000           0.01897000         
H                     1.81449000           1.03488000           1.67223000         
H                     1.25447000           1.13012000          -0.60291000         
H                     2.13905000          -0.43307000          -0.17157000         
H                     0.04619000          -1.48496000           0.43354000         
H                    -1.96801000          -0.32956000          -0.63194000         
H                    -1.74719000           0.25492000           1.00847000         
H                    -1.19440000           1.24038000          -0.35467000         
10
Image 28 energy:0.00000 
C                     1.21098000           0.12110000          -0.21093000         
C                     0.04477000          -0.45656000           0.08496000         
C                    -1.28296000           0.21973000           0.01893000         
H                     1.79348000           1.00204000           1.60411000         
H                     1.25472000           1.12862000          -0.60906000         
H                     2.13955000          -0.43360000          -0.17653000         
H                     0.04587000          -1.48552000           0.43338000         
H                    -1.96889000          -0.32938000          -0.63123000         
H                    -1.74668000           0.25560000           1.00879000         
H                    -1.19405000           1.24026000          -0.35490000         
10
Image 29 energy:-0.00017 
C                     1.21369000           0.12483000          -0.20395000         
C                     0.04370000          -0.45737000           0.08462000         
C                    -1.28287000           0.21971000           0.01888000         
H                     1.77247000           0.96919000           1.53599000         
H                     1.25496000           1.12713000          -0.61521000         
H                     2.14006000          -0.43412000          -0.18149000         
H                     0.04555000          -1.48607000           0.43322000         
H                    -1.96976000          -0.32919000          -0.63052000         
H                    -1.74617000           0.25629000           1.00910000         
H                    -1.19369000           1.24013000          -0.35513000         
10
Image 30 energy:-0.00085 
C                     1.21697000           0.12898000          -0.19658000         
C                     0.04217000          -0.45855000           0.08416000         
C                    -1.28286000           0.21969000           0.01887000         
H                     1.75214000           0.93733000           1.46905000         
H                     1.25512000           1.12475000          -0.62376000         
H                     2.14035000          -0.43540000          -0.18887000         
H                     0.04497000          -1.48681000           0.43327000         
H                    -1.97086000          -0.32878000          -0.62988000         
H                    -1.74599000           0.25714000           1.00938000         
H                    -1.19328000           1.24001000          -0.35534000         
10
Image 31 energy:-0.00240 
C                     1.22090000           0.13353000          -0.18912000         
C                     0.04008000          -0.46007000           0.08371000         
C                    -1.28287000           0.21966000           0.01889000         
H                     1.73214000           0.90599000           1.40328000         
H                     1.25512000           1.12170000          -0.63377000         
H                     2.14035000          -0.43720000          -0.19769000         
H                     0.04423000          -1.48764000           0.43358000         
H                    -1.97202000          -0.32823000          -0.62936000         
H                    -1.74616000           0.25805000           1.00963000         
H                    -1.19296000           1.23992000          -0.35547000         
10
Image 32 energy:-0.00527 
C                     1.22529000           0.13836000          -0.18160000         
C                     0.03761000          -0.46184000           0.08326000         
C                    -1.28292000           0.21961000           0.01894000         
H                     1.71247000           0.87507000           1.33849000         
H                     1.25499000           1.11805000          -0.64487000         
H                     2.14007000          -0.43931000          -0.20762000         
H                     0.04335000          -1.48855000           0.43401000         
H                    -1.97328000          -0.32754000          -0.62894000         
H                    -1.74664000           0.25905000           1.00984000         
H                    -1.19268000           1.23987000          -0.35559000         
10
Image 33 energy:-0.00986 
C                     1.22999000           0.14338000          -0.17408000         
C                     0.03492000          -0.46375000           0.08285000         
C                    -1.28298000           0.21955000           0.01901000         
H                     1.69286000           0.84436000           1.27436000         
H                     1.25474000           1.11403000          -0.65647000         
H                     2.13954000          -0.44163000          -0.21814000         
H                     0.04239000          -1.48950000           0.43450000         
H                    -1.97457000          -0.32677000          -0.62862000         
H                    -1.74733000           0.26011000           1.01002000         
H                    -1.19244000           1.23984000          -0.35571000         
10
Image 34 energy:-0.01643 
C                     1.23491000           0.14851000          -0.16657000         
C                     0.03208000          -0.46576000           0.08247000         
C                    -1.28306000           0.21949000           0.01908000         
H                     1.67328000           0.81379000           1.21076000         
H                     1.25436000           1.10971000          -0.66848000         
H                     2.13880000          -0.44414000          -0.22913000         
H                     0.04136000          -1.49051000           0.43502000         
H                    -1.97592000          -0.32593000          -0.62836000         
H                    -1.74822000           0.26124000           1.01014000         
H                    -1.19224000           1.23983000          -0.35583000         
10
Image 35 energy:-0.02484 
C                     1.23998000           0.15375000          -0.15905000         
C                     0.02917000          -0.46783000           0.08211000         
C                    -1.28317000           0.21942000           0.01917000         
H                     1.65369000           0.78330000           1.14761000         
H                     1.25384000           1.10507000          -0.68084000         