22
Image 1 energy:-0.01124 
C                     1.33777000           0.00630000           1.67385000         
C                     1.49599000           0.00334000           0.33817000         
C                     1.62125000           1.27977000          -0.45781000         
C                     1.58189000          -1.27688000          -0.45580000         
C                    -1.86563000          -0.00204000          -0.82273000         
C                    -1.99981000          -1.30316000          -0.10578000         
C                    -2.01395000           1.29441000          -0.09675000         
H                     1.26040000          -0.92254000           2.24360000         
H                     1.28799000           0.93607000           2.24336000         
H                     2.59119000           1.32443000          -0.96969000         
H                     1.52323000           2.16705000           0.18044000         
H                     0.83593000           1.32772000          -1.23559000         
H                     2.57628000          -1.37462000          -0.94042000         
H                     0.84403000          -1.28521000          -1.26741000         
H                     1.42087000          -2.16294000           0.17334000         
H                    -1.90946000           0.00154000          -1.91467000         
H                    -3.05993000          -1.54189000           0.12767000         
H                    -1.45865000          -1.27744000           0.85843000         
H                    -1.60488000          -2.14566000          -0.69601000         
H                    -1.64087000           2.14467000          -0.68930000         
H                    -1.46283000           1.27730000           0.86178000         
H                    -3.07877000           1.51079000           0.15335000         
22
Image 2 energy:-0.01104 
C                     1.34145000           0.00387000           1.67714000         
C                     1.49983000           0.00104000           0.34384000         
C                     1.60833000           1.27767000          -0.45286000         
C                     1.58427000          -1.27802000          -0.45532000         
C                    -1.87983000           0.00056000          -0.83794000         
C                    -1.98975000          -1.29967000          -0.10333000         
C                    -2.00788000           1.29483000          -0.09910000         
H                     1.25337000          -0.92415000           2.24520000         
H                     1.30043000           0.93468000           2.24673000         
H                     2.58194000           1.33405000          -0.98968000         
H                     1.51618000           2.17097000           0.18505000         
H                     0.83519000           1.31538000          -1.22680000         
H                     2.56785000          -1.36719000          -0.93185000         
H                     0.82341000          -1.28762000          -1.25818000         
H                     1.42730000          -2.16225000           0.17973000         
H                    -1.92759000           0.00256000          -1.92844000         
H                    -3.04376000          -1.52906000           0.18358000         
H                    -1.41028000          -1.27429000           0.83492000         
H                    -1.63372000          -2.15148000          -0.71744000         
H                    -1.67198000           2.15698000          -0.71259000         
H                    -1.41922000           1.27068000           0.83636000         
H                    -3.06153000           1.50749000           0.19094000         
22
Image 3 energy:-0.01112 
C                     1.34080000           0.00408000           1.68147000         
C                     1.49911000           0.00158000           0.34483000         
C                     1.61253000           1.27860000          -0.45223000         
C                     1.58291000          -1.27775000          -0.45119000         
C                    -1.88440000          -0.00083000          -0.83677000         
C                    -1.98977000          -1.29916000          -0.11114000         
C                    -2.00397000           1.29367000          -0.10494000         
H                     1.26867000          -0.92231000           2.25300000         
H                     1.27880000           0.93632000           2.24582000         
H                     2.57194000           1.33045000          -0.97916000         
H                     1.52191000           2.16579000           0.18687000         
H                     0.80403000           1.32736000          -1.21471000         
H                     2.56531000          -1.37102000          -0.96439000         
H                     0.81873000          -1.28713000          -1.24350000         
H                     1.43208000          -2.16316000           0.18177000         
H                    -1.94492000           0.00009000          -1.93313000         
H                    -3.03362000          -1.50300000           0.23699000         
H                    -1.35596000          -1.29373000           0.79823000         
H                    -1.67680000          -2.15090000          -0.72767000         
H                    -1.71482000           2.15094000          -0.72561000         
H                    -1.36021000           1.30106000           0.79635000         
H                    -3.04693000           1.47691000           0.25542000         
22
Image 4 energy:-0.01125 
C                     1.33179000           0.00468000           1.68249000         
C                     1.50376000           0.00026000           0.35028000         
C                     1.60922000           1.27542000          -0.45003000         
C                     1.58641000          -1.27630000          -0.45209000         
C                    -1.89341000          -0.00050000          -0.84831000         
C                    -1.98377000          -1.29639000          -0.10805000         
C                    -1.99984000           1.29350000          -0.10278000         
H                     1.26816000          -0.92345000           2.25579000         
H                     1.27301000           0.93522000           2.25157000         
H                     2.56711000           1.30856000          -1.00552000         
H                     1.54340000           2.16930000           0.18830000         
H                     0.81757000           1.32826000          -1.20453000         
H                     2.55460000          -1.35445000          -0.96550000         
H                     0.80243000          -1.28830000          -1.22972000         
H                     1.46316000          -2.16907000           0.17886000         
H                    -1.96173000           0.00129000          -1.93567000         
H                    -3.00623000          -1.47426000           0.27624000         
H                    -1.31375000          -1.29732000           0.76963000         
H                    -1.73002000          -2.15988000          -0.74945000         
H                    -1.77795000           2.16185000          -0.75036000         
H                    -1.31238000           1.31301000           0.76509000         
H                    -3.02292000           1.44130000           0.30390000         
22
Image 5 energy:-0.01124 
C                     1.32275000           0.00364000           1.68404000         
C                     1.49973000           0.00130000           0.35043000         
C                     1.61836000           1.27318000          -0.45215000         
C                     1.58661000          -1.27525000          -0.44766000         
C                    -1.89380000           0.00203000          -0.84516000         
C                    -1.97680000          -1.29609000          -0.11379000         
C                    -2.00002000           1.29216000          -0.10549000         
H                     1.22398000          -0.92537000           2.24951000         
H                     1.26190000           0.93375000           2.25207000         
H                     2.56477000           1.30109000          -1.01350000         
H                     1.56594000           2.16992000           0.18068000         
H                     0.79506000           1.32183000          -1.19287000         
H                     2.54185000          -1.32158000          -1.00304000         
H                     0.78539000          -1.31304000          -1.20047000         
H                     1.50562000          -2.16684000           0.18684000         
H                    -1.99340000           0.00494000          -1.93727000         
H                    -2.98938000          -1.45850000           0.33630000         
H                    -1.26256000          -1.31701000           0.73267000         
H                    -1.76221000          -2.15881000          -0.76316000         
H                    -1.81999000           2.16544000          -0.75124000         
H                    -1.27713000           1.32368000           0.73108000         
H                    -3.00719000           1.42894000           0.35611000         
22
Image 6 energy:-0.01124 
C                     1.32350000           0.00516000           1.68522000         
C                     1.50494000           0.00043000           0.35393000         
C                     1.61317000           1.27650000          -0.44428000         
C                     1.58407000          -1.27796000          -0.44528000         
C                    -1.90783000          -0.00004000          -0.85743000         
C                    -1.97186000          -1.29675000          -0.11525000         
C                    -1.98981000           1.29297000          -0.10846000         
H                     1.23889000          -0.92079000           2.25586000         
H                     1.25868000           0.93710000           2.25029000         
H                     2.55014000           1.30029000          -1.02511000         
H                     1.58240000           2.16427000           0.19893000         
H                     0.78877000           1.34811000          -1.16946000         
H                     2.52252000          -1.33035000          -1.01974000         
H                     0.76092000          -1.32041000          -1.17552000         
H                     1.52271000          -2.16614000           0.19538000         
H                    -2.04193000           0.00086000          -1.94027000         
H                    -2.95595000          -1.44103000           0.37654000         
H                    -1.21976000          -1.32985000           0.69249000         
H                    -1.81123000          -2.15947000          -0.77461000         
H                    -1.86738000           2.15986000          -0.76936000         
H                    -1.22200000           1.34787000           0.68387000         
H                    -2.96648000           1.40595000           0.40550000         
22
Image 7 energy:-0.01079 
C                     1.30326000           0.00673000           1.68234000         
C                     1.49639000           0.00122000           0.35126000         
C                     1.62197000           1.27662000          -0.44653000         
C                     1.58534000          -1.27836000          -0.44412000         
C                    -1.90006000           0.00068000          -0.85501000         
C                    -1.96413000          -1.29566000          -0.11646000         
C                    -1.98549000           1.28993000          -0.10564000         
H                     1.23014000          -0.92136000           2.25293000         
H                     1.22560000           0.93752000           2.24798000         
H                     2.54694000           1.27966000          -1.03590000         
H                     1.61753000           2.16207000           0.20215000         
H                     0.77544000           1.37068000          -1.15664000         
H                     2.51195000          -1.31991000          -1.03219000         
H                     0.75625000          -1.33803000          -1.15835000         
H                     1.54919000          -2.16599000           0.19639000         
H                    -2.06791000           0.00355000          -1.93837000         
H                    -2.93611000          -1.41762000           0.42656000         
H                    -1.18079000          -1.34424000           0.66024000         
H                    -1.85486000          -2.16442000          -0.78420000         
H                    -1.91563000           2.16467000          -0.77253000         
H                    -1.18542000           1.35883000           0.65387000         
H                    -2.94497000           1.38075000           0.45400000         
22
Image 8 energy:-0.01072 
C                     1.28582000           0.00574000           1.67454000         
C                     1.49793000           0.00063000           0.34754000         
C                     1.62324000           1.27514000          -0.44859000         
C                     1.59160000          -1.27814000          -0.44750000         
C                    -1.88735000           0.00149000          -0.84502000         
C                    -1.96818000          -1.29826000          -0.11053000         
C                    -1.99027000           1.29417000          -0.10072000         
H                     1.18719000          -0.91956000           2.24502000         
H                     1.21908000           0.93667000           2.24127000         
H                     2.56009000           1.27765000          -1.05194000         
H                     1.61879000           2.16781000           0.19175000         
H                     0.80465000           1.35693000          -1.16725000         
H                     2.52625000          -1.29789000          -1.04529000         
H                     0.75369000          -1.35331000          -1.16471000         
H                     1.56161000          -2.16145000           0.20102000         
H                    -2.02586000           0.00457000          -1.92873000         
H                    -2.94575000          -1.42300000           0.38990000         
H                    -1.19385000          -1.35678000           0.68789000         
H                    -1.82582000          -2.15743000          -0.77700000         
H                    -1.88783000           2.15919000          -0.76119000         
H                    -1.20808000           1.37295000           0.68191000         
H                    -2.96331000           1.38435000           0.42723000         
22
Image 9 energy:-0.01087 
C                     1.27770000           0.00567000           1.67168000         
C                     1.49139000           0.00022000           0.34433000         
C                     1.62848000           1.27299000          -0.45679000         
C                     1.59495000          -1.27703000          -0.45458000         
C                    -1.87084000           0.00181000          -0.84087000         
C                    -1.96796000          -1.29562000          -0.10283000         
C                    -1.99362000           1.29222000          -0.09261000         
H                     1.15840000          -0.91892000           2.24038000         
H                     1.21570000           0.93829000           2.23606000         
H                     2.56315000           1.28612000          -1.01843000         
H                     1.60611000           2.16474000           0.18325000         
H                     0.79217000           1.34985000          -1.18368000         
H                     2.54146000          -1.31022000          -1.01182000         
H                     0.77747000          -1.32820000          -1.19569000         
H                     1.54598000          -2.17073000           0.19063000         
H                    -1.97858000           0.00336000          -1.92836000         
H                    -2.97100000          -1.42689000           0.36813000         
H                    -1.24339000          -1.33823000           0.72119000         
H                    -1.80363000          -2.16329000          -0.76776000         
H                    -1.87299000           2.16928000          -0.76099000         
H                    -1.24837000           1.35625000           0.71932000         
H                    -2.98869000           1.38551000           0.39426000         
22
Image 10 energy:-0.01101 
C                     1.27488000           0.00534000           1.66456000         
C                     1.49043000           0.00033000           0.33767000         
C                     1.62478000           1.27591000          -0.45526000         
C                     1.59788000          -1.27960000          -0.45448000         
C                    -1.85351000           0.00218000          -0.82786000         
C                    -1.97640000          -1.29479000          -0.10095000         
C                    -2.00122000           1.29182000          -0.09397000         
H                     1.17113000          -0.92181000           2.23113000         
H                     1.19167000           0.93777000           2.22652000         
H                     2.57323000           1.28558000          -1.03831000         
H                     1.59831000           2.16534000           0.18896000         
H                     0.81833000           1.35770000          -1.19117000         
H                     2.55989000          -1.33620000          -1.00318000         
H                     0.80255000          -1.32170000          -1.21352000         
H                     1.51334000          -2.16845000           0.18526000         
H                    -1.93628000           0.00527000          -1.92085000         
H                    -2.99334000          -1.43472000           0.33051000         
H                    -1.26172000          -1.33438000           0.75274000         
H                    -1.77311000          -2.15831000          -0.74930000         
H                    -1.83319000           2.16420000          -0.73830000         
H                    -1.27981000           1.34663000           0.75057000         
H                    -3.01841000           1.39897000           0.35899000         
22
Image 11 energy:-0.01130 
C                     1.27154000           0.00387000           1.65851000         
C                     1.49346000          -0.00001000           0.33357000         
C                     1.62741000           1.27688000          -0.46109000         
C                     1.59989000          -1.28054000          -0.45648000         
C                    -1.84580000           0.00258000          -0.82627000         
C                    -1.97821000          -1.29695000          -0.09430000         
C                    -2.00534000           1.29491000          -0.08511000         
H                     1.17789000          -0.92365000           2.22660000         
H                     1.17945000           0.93409000           2.22283000         
H                     2.58050000           1.30001000          -1.00585000         
H                     1.57447000           2.16473000           0.18556000         
H                     0.81545000           1.34973000          -1.21096000         
H                     2.57058000          -1.34015000          -0.97350000         
H                     0.81390000          -1.32281000          -1.23343000         
H                     1.48848000          -2.16371000           0.18599000         
H                    -1.89384000           0.00587000          -1.91486000         
H                    -3.01390000          -1.44704000           0.28173000         
H                    -1.32321000          -1.32688000           0.78968000         
H                    -1.73720000          -2.15984000          -0.73660000         
H                    -1.79597000           2.16405000          -0.73008000         
H                    -1.33848000           1.34132000           0.79231000         
H                    -3.03826000           1.41549000           0.30112000         
22
Image 12 energy:-0.01125 
C                     1.28102000           0.00290000           1.66296000         
C                     1.48492000          -0.00017000           0.33287000         
C                     1.62198000           1.27550000          -0.46165000         
C                     1.59576000          -1.27783000          -0.46339000         
C                    -1.82755000           0.00102000          -0.81245000         
C                    -1.98485000          -1.29535000          -0.09459000         
C                    -2.01078000           1.29443000          -0.09147000         
H                     1.16867000          -0.92460000           2.22802000         
H                     1.20151000           0.93364000           2.22604000         
H                     2.58739000           1.31351000          -1.00145000         
H                     1.55086000           2.16971000           0.17445000         
H                     0.83568000           1.32792000          -1.22682000         
H                     2.57737000          -1.34841000          -0.96589000         
H                     0.83464000          -1.30272000          -1.25623000         
H                     1.47103000          -2.16928000           0.17383000         
H                    -1.85601000           0.00144000          -1.90607000         
H                    -3.03421000          -1.45794000           0.24785000         
H                    -1.34705000          -1.31646000           0.81589000         
H                    -1.70815000          -2.15767000          -0.72398000         
H                    -1.76455000           2.16390000          -0.72471000         
H                    -1.36601000           1.33103000           0.81335000         
H                    -3.06235000           1.42999000           0.26488000         
22
Image 13 energy:-0.01139 
C                     1.28301000           0.00212000           1.65747000         
C                     1.49101000          -0.00031000           0.33099000         
C                     1.62135000           1.27666000          -0.46237000         
C                     1.60137000          -1.28062000          -0.46348000         
C                    -1.83141000           0.00328000          -0.81299000         
C                    -1.98738000          -1.29868000          -0.08858000         
C                    -2.01589000           1.29815000          -0.08838000         
H                     1.18796000          -0.92494000           2.22542000         
H                     1.21295000           0.93399000           2.22401000         
H                     2.59305000           1.31383000          -0.98144000         
H                     1.53247000           2.16298000           0.17820000         
H                     0.83717000           1.33675000          -1.23836000         
H                     2.59067000          -1.36426000          -0.94686000         
H                     0.84536000          -1.29811000          -1.26953000         
H                     1.44650000          -2.16522000           0.16284000         
H                    -1.83913000           0.00392000          -1.90343000         
H                    -3.04812000          -1.48494000           0.19647000         
H                    -1.40852000          -1.30850000           0.85015000         
H                    -1.66049000          -2.15296000          -0.70569000         
H                    -1.71230000           2.15950000          -0.70510000         
H                    -1.43015000           1.32351000           0.84680000         
H                    -3.07711000           1.45728000           0.20148000         
22
Image 14 energy:-0.01132 
C                     1.29961000           0.00206000           1.66339000         
C                     1.48541000          -0.00102000           0.32998000         
C                     1.61991000           1.27397000          -0.46827000         
C                     1.60107000          -1.27773000          -0.46404000         
C                    -1.82297000           0.00175000          -0.80546000         
C                    -2.00034000          -1.29463000          -0.09536000         
C                    -2.02260000           1.29591000          -0.08736000         
H                     1.21830000          -0.92658000           2.23153000         
H                     1.20944000           0.93119000           2.22808000         
H                     2.60180000           1.32200000          -0.97053000         
H                     1.51561000           2.16849000           0.16289000         
H                     0.85702000           1.31052000          -1.26036000         
H                     2.59411000          -1.34911000          -0.93597000         
H                     0.86212000          -1.29829000          -1.27662000         
H                     1.45622000          -2.16712000           0.16945000         
H                    -1.81659000           0.00367000          -1.89896000         
H                    -3.06692000          -1.50280000           0.13903000         
H                    -1.45830000          -1.27860000           0.87223000         
H                    -1.62863000          -2.14811000          -0.68288000         
H                    -1.68254000           2.16039000          -0.68040000         
H                    -1.47367000           1.29608000           0.87396000         
H                    -3.09417000           1.47466000           0.16066000         
22
Image 15 energy:-0.01128 
C                     1.31087000           0.00212000           1.65975000         
C                     1.48910000          -0.00044000           0.32805000         
C                     1.61768000           1.27559000          -0.46553000         
C                     1.59724000          -1.28117000          -0.46420000         
C                    -1.82160000           0.00484000          -0.80360000         
C                    -2.00039000          -1.29780000          -0.09136000         
C                    -2.02929000           1.29800000          -0.08835000         
H                     1.21241000          -0.92553000           2.22741000         
H                     1.25324000           0.93415000           2.22752000         
H                     2.60823000           1.33841000          -0.95098000         
H                     1.48895000           2.16450000           0.16518000         
H                     0.86580000           1.30929000          -1.27093000         
H                     2.59600000          -1.36844000          -0.93519000         
H                     0.85548000          -1.29699000          -1.28294000         
H                     1.43637000          -2.16636000           0.16746000         
H                    -1.80007000           0.00766000          -1.89809000         
H                    -3.07215000          -1.53634000           0.07747000         
H                    -1.52823000          -1.27813000           0.90149000         
H                    -1.57624000          -2.13852000          -0.65552000         
H                    -1.63919000           2.15269000          -0.65690000         
H                    -1.54290000           1.28937000           0.90026000         
H                    -3.10588000           1.50061000           0.09353000         
22
Image 16 energy:-0.01112 
C                     1.34405000           0.00174000           1.66846000         
C                     1.49265000          -0.00112000           0.33202000         
C                     1.60677000           1.27609000          -0.46380000         
C                     1.59212000          -1.28084000          -0.46175000         
C                    -1.83260000           0.00290000          -0.80715000         
C                    -2.01052000          -1.29964000          -0.09951000         
C                    -2.03095000           1.30059000          -0.09372000         
H                     1.26395000          -0.92389000           2.23949000         
H                     1.28644000           0.93470000           2.23566000         
H                     2.60197000           1.35390000          -0.93337000         
H                     1.45623000           2.16423000           0.16458000         
H                     0.86657000           1.29705000          -1.27952000         
H                     2.59002000          -1.37375000          -0.92127000         
H                     0.86013000          -1.29078000          -1.28408000         
H                     1.42155000          -2.16517000           0.17205000         
H                    -1.80196000           0.00533000          -1.89881000         
H                    -3.08056000          -1.55617000           0.03902000         
H                    -1.55474000          -1.26257000           0.91094000         
H                    -1.55311000          -2.13377000          -0.65012000         
H                    -1.60497000           2.14626000          -0.65285000         
H                    -1.56580000           1.27999000           0.90878000         