13
Image 1 energy:-0.00506 
C                    -1.95773000           0.05344000          -0.05767000         
C                    -0.54208000          -0.38834000           0.13460000         
C                     0.52849000           0.29639000          -0.24006000         
C                     1.94424000          -0.14264000          -0.04376000         
H                    -2.51561000          -0.66649000          -0.66231000         
H                    -2.00775000           1.02450000          -0.55234000         
H                    -2.47755000           0.13206000           0.90087000         
H                    -0.40053000          -1.34931000           0.62547000         
H                     0.37818000           2.51586000           2.87096000         
H                     0.38663000           1.25747000          -0.73045000         
H                     2.50052000           0.58028000           0.55616000         
H                     1.99513000          -1.11110000           0.45558000         
H                     2.46350000          -0.22635000          -1.00034000         
13
Image 2 energy:-0.00498 
C                    -1.95791000           0.05436000          -0.05648000         
C                    -0.54248000          -0.38769000           0.13587000         
C                     0.52847000           0.29689000          -0.23969000         
C                     1.94443000          -0.14150000          -0.04240000         
H                    -2.51500000          -0.66467000          -0.66300000         
H                    -2.00774000           1.02628000          -0.54962000         
H                    -2.47859000           0.13102000           0.90174000         
H                    -0.40083000          -1.34902000           0.62597000         
H                     0.37984000           2.46463000           2.80626000         
H                     0.38658000           1.25839000          -0.72923000         
H                     2.49698000           0.58293000           0.56601000         
H                     1.99427000          -1.11198000           0.45535000         
H                     2.47181000          -0.21900000          -0.99991000         
13
Image 3 energy:-0.00490 
C                    -1.95776000           0.05482000          -0.05608000         
C                    -0.54207000          -0.38710000           0.13567000         
C                     0.52837000           0.29845000          -0.23705000         
C                     1.94417000          -0.14003000          -0.04060000         
H                    -2.51455000          -0.66222000          -0.66511000         
H                    -2.00776000           1.02837000          -0.54578000         
H                    -2.47875000           0.12815000           0.90220000         
H                    -0.40042000          -1.34912000           0.62414000         
H                     0.38092000           2.41327000           2.74707000         
H                     0.38634000           1.26101000          -0.72463000         
H                     2.50111000           0.58429000           0.55298000         
H                     1.99739000          -1.10435000           0.46307000         
H                     2.46057000          -0.22937000          -0.99566000         
13
Image 4 energy:-0.00482 
C                    -1.95793000           0.05568000          -0.05478000         
C                    -0.54247000          -0.38655000           0.13715000         
C                     0.52839000           0.29893000          -0.23688000         
C                     1.94443000          -0.13902000          -0.03930000         
H                    -2.51416000          -0.66071000          -0.66522000         
H                    -2.00765000           1.02993000          -0.54331000         
H                    -2.47961000           0.12765000           0.90331000         
H                    -0.40087000          -1.34826000           0.62659000         
H                     0.38184000           2.36755000           2.68225000         
H                     0.38639000           1.26061000          -0.72598000         
H                     2.49662000           0.58419000           0.57110000         
H                     1.99374000          -1.11128000           0.45597000         
H                     2.47203000          -0.21407000          -0.99693000         
13
Image 5 energy:-0.00473 
C                    -1.95786000           0.05613000          -0.05448000         
C                    -0.54227000          -0.38595000           0.13716000         
C                     0.52830000           0.30062000          -0.23409000         
C                     1.94424000          -0.13768000          -0.03784000         
H                    -2.51302000          -0.65782000          -0.66868000         
H                    -2.00767000           1.03247000          -0.53871000         
H                    -2.48063000           0.12354000           0.90329000         
H                    -0.40060000          -1.34887000           0.62395000         
H                     0.38380000           2.31406000           2.62315000         
H                     0.38618000           1.26393000          -0.72012000         
H                     2.50118000           0.58924000           0.55648000         
H                     1.99657000          -1.10193000           0.46827000         
H                     2.46264000          -0.22765000          -0.99439000         
13
Image 6 energy:-0.00462 
C                    -1.95793000           0.05686000          -0.05353000         
C                    -0.54244000          -0.38544000           0.13799000         
C                     0.52830000           0.30180000          -0.23245000         
C                     1.94433000          -0.13648000          -0.03636000         
H                    -2.51235000          -0.65542000          -0.67039000         
H                    -2.00758000           1.03467000          -0.53488000         
H                    -2.48155000           0.12122000           0.90401000         
H                    -0.40081000          -1.34879000           0.62406000         
H                     0.38518000           2.26244000           2.55458000         
H                     0.38613000           1.26520000          -0.71814000         
H                     2.50073000           0.59092000           0.56133000         
H                     1.99550000          -1.10242000           0.46867000         
H                     2.46514000          -0.22386000          -0.99417000         
13
Image 7 energy:-0.00449 
C                    -1.95795000           0.05744000          -0.05295000         
C                    -0.54244000          -0.38497000           0.13831000         
C                     0.52824000           0.30339000          -0.22983000         
C                     1.94428000          -0.13522000          -0.03495000         
H                    -2.51134000          -0.65250000          -0.67340000         
H                    -2.00752000           1.03721000          -0.53027000         
H                    -2.48266000           0.11755000           0.90426000         
H                    -0.40081000          -1.34944000           0.62208000         
H                     0.38722000           2.20936000           2.48894000         
H                     0.38600000           1.26796000          -0.71326000         
H                     2.50360000           0.59493000           0.55511000         
H                     1.99635000          -1.09750000           0.47613000         
H                     2.46097000          -0.23014000          -0.99329000         
13
Image 8 energy:-0.00435 
C                    -1.95799000           0.05802000          -0.05232000         
C                    -0.54254000          -0.38452000           0.13878000         
C                     0.52822000           0.30506000          -0.22716000         
C                     1.94432000          -0.13408000          -0.03367000         
H                    -2.51039000          -0.64990000          -0.67597000         
H                    -2.00747000           1.03949000          -0.52614000         
H                    -2.48376000           0.11439000           0.90453000         
H                    -0.40094000          -1.35008000           0.62042000         
H                     0.38870000           2.15694000           2.42163000         
H                     0.38591000           1.27053000          -0.70870000         
H                     2.50583000           0.59833000           0.55221000         
H                     1.99643000          -1.09439000           0.48148000         
H                     2.45897000          -0.23351000          -0.99320000         
13
Image 9 energy:-0.00419 
C                    -1.95803000           0.05850000          -0.05187000         
C                    -0.54259000          -0.38411000           0.13907000         
C                     0.52821000           0.30694000          -0.22395000         
C                     1.94433000          -0.13298000          -0.03249000         
H                    -2.50941000          -0.64744000          -0.67866000         
H                    -2.00746000           1.04164000          -0.52221000         
H                    -2.48484000           0.11115000           0.90461000         
H                    -0.40101000          -1.35110000           0.61780000         
H                     0.39019000           2.10517000           2.35508000         
H                     0.38584000           1.27377000          -0.70282000         
H                     2.50934000           0.60218000           0.54611000         
H                     1.99699000          -1.08998000           0.48857000         
H                     2.45477000          -0.23971000          -0.99327000         
13
Image 10 energy:-0.00401 
C                    -1.95810000           0.05891000          -0.05153000         
C                    -0.54273000          -0.38378000           0.13934000         
C                     0.52823000           0.30907000          -0.22034000         
C                     1.94436000          -0.13200000          -0.03148000         
H                    -2.50849000          -0.64531000          -0.68109000         
H                    -2.00747000           1.04351000          -0.51879000         
H                    -2.48587000           0.10828000           0.90460000         
H                    -0.40117000          -1.35239000           0.61480000         
H                     0.39243000           2.05416000           2.28818000         
H                     0.38578000           1.27714000          -0.69657000         
H                     2.51312000           0.60599000           0.54008000         
H                     1.99736000          -1.08585000           0.49545000         
H                     2.45062000          -0.24584000          -0.99392000         
13
Image 11 energy:-0.00382 
C                    -1.95818000           0.05924000          -0.05133000         
C                    -0.54286000          -0.38346000           0.13950000         
C                     0.52824000           0.31139000          -0.21630000         
C                     1.94438000          -0.13108000          -0.03059000         
H                    -2.50759000          -0.64362000          -0.68326000         
H                    -2.00754000           1.04503000          -0.51604000         
H                    -2.48684000           0.10580000           0.90444000         
H                    -0.40130000          -1.35399000           0.61102000         
H                     0.39487000           2.00373000           2.22198000         
H                     0.38573000           1.28123000          -0.68891000         
H                     2.51777000           0.60994000           0.53216000         
H                     1.99801000          -1.08102000           0.50322000         
H                     2.44516000          -0.25360000          -0.99481000         
13
Image 12 energy:-0.00359 
C                    -1.95827000           0.05944000          -0.05129000         
C                    -0.54301000          -0.38315000           0.13962000         
C                     0.52828000           0.31399000          -0.21172000         
C                     1.94442000          -0.13030000          -0.02988000         
H                    -2.50679000          -0.64253000          -0.68495000         
H                    -2.00769000           1.04608000          -0.51418000         
H                    -2.48766000           0.10393000           0.90417000         
H                    -0.40144000          -1.35568000           0.60700000         
H                     0.39739000           1.95434000           2.15553000         
H                     0.38573000           1.28542000          -0.68094000         
H                     2.52290000           0.61354000           0.52391000         
H                     1.99863000          -1.07644000           0.51063000         
H                     2.43922000          -0.26149000          -0.99620000         
13
Image 13 energy:-0.00334 
C                    -1.95838000           0.05954000          -0.05142000         
C                    -0.54319000          -0.38285000           0.13969000         
C                     0.52835000           0.31681000          -0.20672000         
C                     1.94444000          -0.12960000          -0.02932000         
H                    -2.50603000          -0.64203000          -0.68625000         
H                    -2.00794000           1.04670000          -0.51316000         
H                    -2.48841000           0.10260000           0.90376000         
H                    -0.40156000          -1.35756000           0.60245000         
H                     0.40054000           1.90546000           2.08971000         
H                     0.38575000           1.29001000          -0.67212000         
H                     2.52861000           0.61698000           0.51457000         
H                     1.99942000          -1.07157000           0.51830000         
H                     2.43238000          -0.27017000          -0.99787000         
13
Image 14 energy:-0.00305 
C                    -1.95850000           0.05953000          -0.05169000         
C                    -0.54339000          -0.38251000           0.13976000         
C                     0.52844000           0.31987000          -0.20132000         
C                     1.94444000          -0.12900000          -0.02888000         
H                    -2.50537000          -0.64215000          -0.68706000         
H                    -2.00826000           1.04686000          -0.51299000         
H                    -2.48898000           0.10185000           0.90329000         
H                    -0.40162000          -1.35936000           0.59790000         
H                     0.40420000           1.85714000           2.02392000         
H                     0.38580000           1.29465000          -0.66330000         
H                     2.53459000           0.61981000           0.50515000         
H                     2.00022000          -1.06703000           0.52533000         
H                     2.42493000          -0.27865000          -0.99979000         
13
Image 15 energy:-0.00272 
C                    -1.95862000           0.05941000          -0.05208000         
C                    -0.54364000          -0.38223000           0.13975000         
C                     0.52855000           0.32321000          -0.19549000         
C                     1.94443000          -0.12850000          -0.02857000         
H                    -2.50487000          -0.64275000          -0.68743000         
H                    -2.00863000           1.04667000          -0.51347000         
H                    -2.48930000           0.10157000           0.90280000         
H                    -0.40167000          -1.36111000           0.59341000         
H                     0.40836000           1.80953000           1.95804000         
H                     0.38586000           1.29903000          -0.65494000         
H                     2.54071000           0.62212000           0.49585000         
H                     2.00100000          -1.06283000           0.53175000         
H                     2.41718000          -0.28682000          -1.00199000         
13
Image 16 energy:-0.00235 
C                    -1.95874000           0.05919000          -0.05261000         
C                    -0.54395000          -0.38202000           0.13962000         
C                     0.52871000           0.32679000          -0.18927000         
C                     1.94440000          -0.12806000          -0.02831000         
H                    -2.50461000          -0.64371000          -0.68741000         
H                    -2.00901000           1.04619000          -0.51447000         
H                    -2.48930000           0.10170000           0.90235000         
H                    -0.40164000          -1.36276000           0.58903000         
H                     0.41322000           1.76257000           1.89242000         
H                     0.38595000           1.30338000          -0.64694000         
H                     2.54720000           0.62390000           0.48625000         
H                     2.00182000          -1.05880000           0.53777000         
H                     2.40854000          -0.29496000          -1.00441000         
13
Image 17 energy:-0.00194 
C                    -1.95884000           0.05891000          -0.05320000         
C                    -0.54433000          -0.38196000           0.13932000         
C                     0.52888000           0.33068000          -0.18258000         
C                     1.94437000          -0.12768000          -0.02811000         
H                    -2.50469000          -0.64480000          -0.68708000         
H                    -2.00933000           1.04557000          -0.51566000         
H                    -2.48888000           0.10206000           0.90205000         
H                    -0.40161000          -1.36419000           0.58522000         
H                     0.41876000           1.71657000           1.82631000         
H                     0.38599000           1.30681000          -0.64086000         
H                     2.55365000           0.62496000           0.47739000         
H                     2.00254000          -1.05539000           0.54278000         
H                     2.39980000          -0.30219000          -1.00702000         
13
Image 18 energy:-0.00149 
C                    -1.95892000           0.05855000          -0.05387000         
C                    -0.54481000          -0.38214000           0.13876000         
C                     0.52909000           0.33489000          -0.17545000         
C                     1.94435000          -0.12732000          -0.02792000         
H                    -2.50529000          -0.64592000          -0.68642000         
H                    -2.00955000           1.04486000          -0.51697000         
H                    -2.48797000           0.10267000           0.90194000         
H                    -0.40154000          -1.36541000           0.58202000         
H                     0.42513000           1.67136000           1.76039000         
H                     0.38599000           1.30974000          -0.63634000         
H                     2.56038000           0.62534000           0.46871000         
H                     2.00317000          -1.05235000           0.54714000         
H                     2.39036000          -0.30898000          -1.00983000         
13
Image 19 energy:-0.00102 
C                    -1.95900000           0.05818000          -0.05453000         
C                    -0.54542000          -0.38265000           0.13794000         
C                     0.52935000           0.33951000          -0.16788000         
C                     1.94438000          -0.12700000          -0.02776000         
H                    -2.50639000          -0.64678000          -0.68561000         
H                    -2.00959000           1.04423000          -0.51803000         
H                    -2.48664000           0.10334000           0.90209000         
H                    -0.40148000          -1.36633000           0.57987000         
H                     0.43214000           1.62717000           1.69418000         
H                     0.38593000           1.31119000          -0.63508000         
H                     2.56691000           0.62494000           0.46117000         
H                     2.00358000          -1.05002000           0.55039000         
H                     2.38112000          -0.31461000          -1.01268000         
13
Image 20 energy:-0.00055 
C                    -1.95910000           0.05779000          -0.05515000         
C                    -0.54616000          -0.38351000           0.13682000         
C                     0.52963000           0.34451000          -0.15996000         
C                     1.94451000          -0.12672000          -0.02764000         
H                    -2.50805000          -0.64729000          -0.68468000         
H                    -2.00942000           1.04372000          -0.51884000         
H                    -2.48501000           0.10408000           0.90247000         
H                    -0.40144000          -1.36695000           0.57882000         
H                     0.43948000           1.58373000           1.62824000         
H                     0.38582000           1.31159000          -0.63667000         
H                     2.57330000           0.62386000           0.45459000         
H                     2.00373000          -1.04821000           0.55284000         
H                     2.37213000          -0.31941000          -1.01549000         
13
Image 21 energy:-0.00018 
C                    -1.95922000           0.05744000          -0.05565000         
C                    -0.54738000          -0.38510000           0.13549000         
C                     0.53023000           0.35038000          -0.15162000         
C                     1.94484000          -0.12658000          -0.02771000         
H                    -2.51012000          -0.64734000          -0.68384000         
H                    -2.00903000           1.04336000          -0.51930000         
H                    -2.48362000           0.10489000           0.90293000         
H                    -0.40164000          -1.36750000           0.57897000         
H                     0.44692000           1.54161000           1.56306000         
H                     0.38592000           1.30976000          -0.64287000         
H                     2.57899000           0.62223000           0.44927000         
H                     2.00355000          -1.04694000           0.55451000         
H                     2.36444000          -0.32341000          -1.01805000         
13
Image 22 energy:0.00000 
C                    -1.95935000           0.05716000          -0.05598000         
C                    -0.54895000          -0.38713000           0.13416000         
C                     0.53110000           0.35679000          -0.14330000         
C                     1.94529000          -0.12654000          -0.02793000         
H                    -2.51215000          -0.64711000          -0.68313000         
H                    -2.00855000           1.04311000          -0.51957000         
H                    -2.48270000           0.10571000           0.90337000         
H                    -0.40201000          -1.36810000           0.57971000         
H                     0.45375000           1.49945000           1.49852000         
H                     0.38624000           1.30666000          -0.65165000         
H                     2.58368000           0.62049000           0.44513000         
H                     2.00318000          -1.04598000           0.55575000         
H                     2.35846000          -0.32678000          -1.02015000         
13
Image 23 energy:-0.00028 
C                    -1.95948000           0.05687000          -0.05632000         
C                    -0.55052000          -0.38916000           0.13284000         
C                     0.53198000           0.36320000          -0.13498000         
C                     1.94574000          -0.12651000          -0.02815000         
H                    -2.51419000          -0.64689000          -0.68243000         
H                    -2.00807000           1.04286000          -0.51985000         
H                    -2.48179000           0.10653000           0.90381000         
H                    -0.40238000          -1.36869000           0.58045000         
H                     0.46059000           1.45729000           1.43397000         
H                     0.38655000           1.30357000          -0.66043000         
H                     2.58836000           0.61875000           0.44099000         
H                     2.00280000          -1.04502000           0.55699000         
H                     2.35248000          -0.33016000          -1.02225000         
13
Image 24 energy:-0.00137 
C                    -1.95962000           0.05662000          -0.05656000         
C                    -0.55250000          -0.39168000           0.13150000         
C                     0.53318000           0.37020000          -0.12658000         
C                     1.94628000          -0.12657000          -0.02851000         
H                    -2.51629000          -0.64645000          -0.68184000         
H                    -2.00756000           1.04267000          -0.52005000         
H                    -2.48132000           0.10745000           0.90418000         
H                    -0.40292000          -1.36946000           0.58153000         
H                     0.46742000           1.41572000           1.37063000         
H                     0.38713000           1.29933000          -0.67155000         
H                     2.59241000           0.61698000           0.43742000         
H                     2.00231000          -1.04419000           0.55805000         
H                     2.34769000          -0.33336000          -1.02402000         
13
Image 25 energy:-0.00376 
C                    -1.95973000           0.05641000          -0.05669000         
C                    -0.55492000          -0.39461000           0.13026000         
C                     0.53480000           0.37768000          -0.11828000         
C                     1.94684000          -0.12671000          -0.02900000         
H                    -2.51828000          -0.64588000          -0.68139000         
H                    -2.00714000           1.04254000          -0.52021000         
H                    -2.48138000           0.10840000           0.90447000         
H                    -0.40357000          -1.37034000           0.58271000         
H                     0.47379000           1.37444000           1.30814000         
H                     0.38797000           1.29407000          -0.68404000         
H                     2.59568000           0.61526000           0.43443000         
H                     2.00179000          -1.04353000           0.55888000         
H                     2.34421000          -0.33632000          -1.02537000         
13
Image 26 energy:-0.00794 
C                    -1.95985000           0.05622000          -0.05674000         
C                    -0.55753000          -0.39771000           0.12914000         
C                     0.53663000           0.38540000          -0.11012000         
C                     1.94740000          -0.12689000          -0.02955000         
H                    -2.52019000          -0.64523000          -0.68107000         
H                    -2.00677000           1.04245000          -0.52037000         
H                    -2.48183000           0.10937000           0.90467000         
H                    -0.40431000          -1.37133000           0.58385000         
H                     0.47968000           1.33308000           1.24613000         
H                     0.38898000           1.28822000          -0.69714000         
H                     2.59856000           0.61362000           0.43185000         
H                     2.00126000          -1.04300000           0.55956000         
H                     2.34166000          -0.33910000          -1.02645000         
13
Image 27 energy:-0.01420 
C                    -1.95998000           0.05605000          -0.05674000         
C                    -0.56025000          -0.40092000           0.12811000         
C                     0.53861000           0.39327000          -0.10206000         
C                     1.94795000          -0.12710000          -0.03016000         
H                    -2.52206000          -0.64452000          -0.68085000         
H                    -2.00645000           1.04238000          -0.52055000         
H                    -2.48262000           0.11036000           0.90477000         
H                    -0.40510000          -1.37244000           0.58490000         
H                     0.48516000           1.29157000           1.18446000         