19
Image 1 energy:-0.03989 
C                    -0.72886000          -2.15236000          -0.13458000         
C                    -0.79593000          -0.77530000           0.44043000         
C                    -0.36166000           0.46400000          -0.28275000         
C                    -1.40291000           1.59427000          -0.11785000         
C                     1.03833000           0.95662000           0.18116000         
C                     2.15700000          -0.06321000          -0.05390000         
H                    -0.63190000          -2.12747000          -1.23107000         
H                    -1.62660000          -2.74633000           0.11280000         
H                     0.13377000          -2.73359000           0.24976000         
H                    -1.06774000          -0.66800000           1.49530000         
H                    -0.28106000           0.22604000          -1.35943000         
H                    -2.39055000           1.27733000          -0.48382000         
H                    -1.10097000           2.49686000          -0.67010000         
H                     0.98440000           1.20823000           1.25374000         
H                     1.27274000           1.89634000          -0.34729000         
H                     1.99016000          -0.97616000           0.53400000         
H                     3.13704000           0.34636000           0.23044000         
H                    -1.50998000           1.86944000           0.94270000         
H                     2.21029000          -0.35511000          -1.11406000         
19
Image 2 energy:-0.03959 
C                    -0.71925000          -2.15274000          -0.12934000         
C                    -0.79412000          -0.77220000           0.43489000         
C                    -0.36317000           0.46865000          -0.28989000         
C                    -1.40657000           1.59836000          -0.11112000         
C                     1.03727000           0.95443000           0.17330000         
C                     2.15137000          -0.07039000          -0.05111000         
H                    -0.60790000          -2.14204000          -1.22541000         
H                    -1.62681000          -2.74397000           0.11625000         
H                     0.12927000          -2.72902000           0.27668000         
H                    -1.03941000          -0.66207000           1.49770000         
H                    -0.29495000           0.23426000          -1.36797000         
H                    -2.40557000           1.26693000          -0.45414000         
H                    -1.12024000           2.50021000          -0.67003000         
H                     0.98018000           1.20582000           1.24576000         
H                     1.27990000           1.89428000          -0.35481000         
H                     1.93478000          -1.01884000           0.47569000         
H                     3.12214000           0.31009000           0.32247000         
H                    -1.49890000           1.87392000           0.94693000         
H                     2.27241000          -0.30039000          -1.12745000         
19
Image 3 energy:-0.03976 
C                    -0.72211000          -2.15421000          -0.13473000         
C                    -0.80250000          -0.77501000           0.43893000         
C                    -0.36493000           0.46416000          -0.28289000         
C                    -1.40135000           1.59552000          -0.11454000         
C                     1.03849000           0.95912000           0.17849000         
C                     2.15567000          -0.06549000          -0.05364000         
H                    -0.60676000          -2.12801000          -1.22797000         
H                    -1.61104000          -2.75848000           0.09910000         
H                     0.14908000          -2.72445000           0.25840000         
H                    -1.08893000          -0.66786000           1.48877000         
H                    -0.28182000           0.22745000          -1.35926000         
H                    -2.39416000           1.28647000          -0.45993000         
H                    -1.10305000           2.49314000          -0.67896000         
H                     0.98572000           1.21807000           1.24814000         
H                     1.27340000           1.89431000          -0.35524000         
H                     1.97409000          -0.96891000           0.53943000         
H                     3.13720000           0.32852000           0.22952000         
H                    -1.48406000           1.88198000           0.94846000         
H                     2.20202000          -0.36904000          -1.10688000         
19
Image 4 energy:-0.03969 
C                    -0.73951000          -2.15323000          -0.13421000         
C                    -0.80056000          -0.77818000           0.43861000         
C                    -0.35445000           0.46029000          -0.28019000         
C                    -1.39883000           1.58928000          -0.12104000         
C                     1.03946000           0.95884000           0.18873000         
C                     2.16185000          -0.05350000          -0.05829000         
H                    -0.66402000          -2.12779000          -1.23615000         
H                    -1.63167000          -2.75141000           0.13882000         
H                     0.13753000          -2.72553000           0.23567000         
H                    -1.09768000          -0.67139000           1.48492000         
H                    -0.26872000           0.22116000          -1.35755000         
H                    -2.38139000           1.27369000          -0.50701000         
H                    -1.08646000           2.49850000          -0.65316000         
H                     0.98552000           1.20041000           1.26576000         
H                     1.26927000           1.90280000          -0.33457000         
H                     2.03718000          -0.95247000           0.56929000         
H                     3.14879000           0.38817000           0.16841000         
H                    -1.52600000           1.84694000           0.94072000         
H                     2.17348000          -0.38294000          -1.11522000         
19
Image 5 energy:-0.03955 
C                    -0.76184000          -2.15756000          -0.13544000         
C                    -0.79402000          -0.77860000           0.44461000         
C                    -0.35618000           0.45709000          -0.28006000         
C                    -1.40199000           1.58349000          -0.12857000         
C                     1.04041000           0.95366000           0.19661000         
C                     2.18146000          -0.03668000          -0.06151000         
H                    -0.69930000          -2.13335000          -1.22774000         
H                    -1.65354000          -2.74074000           0.13236000         
H                     0.10295000          -2.75408000           0.21588000         
H                    -1.04899000          -0.65859000           1.51625000         
H                    -0.26554000           0.21989000          -1.35360000         
H                    -2.37517000           1.27257000          -0.52646000         
H                    -1.08921000           2.49256000          -0.66840000         
H                     0.98759000           1.18823000           1.27160000         
H                     1.26034000           1.90907000          -0.31342000         
H                     2.05953000          -0.95341000           0.53971000         
H                     3.16173000           0.39368000           0.17628000         
H                    -1.54122000           1.85029000           0.93133000         
H                     2.19826000          -0.34093000          -1.11808000         
19
Image 6 energy:-0.03986 
C                    -0.76239000          -2.15659000          -0.13209000         
C                    -0.79073000          -0.77937000           0.44605000         
C                    -0.35221000           0.45685000          -0.28207000         
C                    -1.40088000           1.58347000          -0.13079000         
C                     1.03964000           0.95762000           0.19580000         
C                     2.17392000          -0.03971000          -0.06301000         
H                    -0.73340000          -2.13360000          -1.23489000         
H                    -1.64560000          -2.74819000           0.17275000         
H                     0.12459000          -2.73801000           0.19866000         
H                    -1.02607000          -0.67343000           1.50579000         
H                    -0.26180000           0.21391000          -1.35693000         
H                    -2.38550000           1.25543000          -0.49594000         
H                    -1.10360000           2.48201000          -0.69178000         
H                     0.97804000           1.17992000           1.27433000         
H                     1.26374000           1.91301000          -0.30648000         
H                     2.00088000          -0.98711000           0.46463000         
H                     3.13950000           0.36594000           0.27756000         
H                    -1.51266000           1.86849000           0.92651000         
H                     2.26524000          -0.26355000          -1.13765000         
19
Image 7 energy:-0.03963 
C                    -0.74513000          -2.15158000          -0.13222000         
C                    -0.78445000          -0.77434000           0.44741000         
C                    -0.36399000           0.46124000          -0.28771000         
C                    -1.40117000           1.58792000          -0.12867000         
C                     1.02977000           0.95027000           0.19268000         
C                     2.16623000          -0.05009000          -0.05980000         
H                    -0.69590000          -2.12534000          -1.23094000         
H                    -1.62846000          -2.74687000           0.15721000         
H                     0.13756000          -2.73100000           0.21286000         
H                    -0.98269000          -0.66616000           1.52588000         
H                    -0.27570000           0.21696000          -1.36100000         
H                    -2.39123000           1.26317000          -0.47075000         
H                    -1.11254000           2.47924000          -0.71241000         
H                     0.97116000           1.17772000           1.26869000         
H                     1.26888000           1.90580000          -0.30746000         
H                     1.97199000          -1.01802000           0.44340000         
H                     3.13536000           0.32976000           0.30906000         
H                    -1.49407000           1.88509000           0.92867000         
H                     2.27131000          -0.24904000          -1.14053000         
19
Image 8 energy:-0.03985 
C                    -0.74360000          -2.15846000          -0.13016000         
C                    -0.80470000          -0.77850000           0.44008000         
C                    -0.35728000           0.45917000          -0.28058000         
C                    -1.39935000           1.58993000          -0.12292000         
C                     1.03953000           0.95672000           0.19089000         
C                     2.17100000          -0.04612000          -0.06417000         
H                    -0.67054000          -2.13929000          -1.22809000         
H                    -1.63282000          -2.75552000           0.13938000         
H                     0.13106000          -2.73276000           0.23731000         
H                    -1.07086000          -0.66956000           1.49351000         
H                    -0.27029000           0.22097000          -1.35649000         
H                    -2.38450000           1.26638000          -0.48869000         
H                    -1.10136000           2.48897000          -0.68253000         
H                     0.98335000           1.18584000           1.26769000         
H                     1.26228000           1.90795000          -0.31855000         
H                     2.00986000          -0.97370000           0.50043000         
H                     3.14330000           0.36949000           0.23761000         
H                    -1.51077000           1.87309000           0.93431000         
H                     2.23540000          -0.31243000          -1.13047000         
19
Image 9 energy:-0.03941 
C                    -0.75274000          -2.15732000          -0.13463000         
C                    -0.80067000          -0.77792000           0.44430000         
C                    -0.36033000           0.45619000          -0.27858000         
C                    -1.39250000           1.58798000          -0.12965000         
C                     1.03182000           0.94878000           0.20300000         
C                     2.17782000          -0.03778000          -0.06478000         
H                    -0.70465000          -2.13806000          -1.23158000         
H                    -1.63271000          -2.75636000           0.15416000         
H                     0.13237000          -2.73019000           0.20903000         
H                    -1.07824000          -0.67218000           1.49544000         
H                    -0.26140000           0.21566000          -1.35230000         
H                    -2.37222000           1.26752000          -0.50010000         
H                    -1.08995000           2.48107000          -0.70050000         
H                     0.97994000           1.18623000           1.27308000         
H                     1.25671000           1.89882000          -0.30520000         
H                     2.08959000          -0.96604000           0.53820000         
H                     3.15950000           0.42368000           0.15488000         
H                    -1.51201000           1.87949000           0.92576000         
H                     2.18328000          -0.32705000          -1.13319000         
19
Image 10 energy:-0.03956 
C                    -0.75064000          -2.15453000          -0.13197000         
C                    -0.79578000          -0.77761000           0.44599000         
C                    -0.35346000           0.45935000          -0.27945000         
C                    -1.40475000           1.58708000          -0.13278000         
C                     1.03924000           0.95537000           0.19966000         
C                     2.17070000          -0.04609000          -0.06885000         
H                    -0.71367000          -2.12664000          -1.23478000         
H                    -1.63313000          -2.75229000           0.16617000         
H                     0.13921000          -2.72954000           0.20703000         
H                    -1.02669000          -0.66649000           1.51057000         
H                    -0.26108000           0.21426000          -1.35366000         
H                    -2.38945000           1.24876000          -0.49762000         
H                    -1.11088000           2.48017000          -0.69968000         
H                     0.98089000           1.15596000           1.28861000         
H                     1.26474000           1.92152000          -0.28728000         
H                     2.02479000          -0.97262000           0.48339000         
H                     3.13826000           0.36266000           0.23732000         
H                    -1.52419000           1.87832000           0.91971000         
H                     2.23869000          -0.29468000          -1.12787000         
19
Image 11 energy:-0.03960 
C                    -0.73066000          -2.15113000          -0.12777000         
C                    -0.79317000          -0.77338000           0.44286000         
C                    -0.36206000           0.46486000          -0.28564000         
C                    -1.40914000           1.59222000          -0.12700000         
C                     1.03584000           0.95222000           0.19521000         
C                     2.16091000          -0.05994000          -0.06520000         
H                    -0.65502000          -2.12672000          -1.22300000         
H                    -1.61776000          -2.74848000           0.13745000         
H                     0.14228000          -2.72604000           0.24061000         
H                    -1.01526000          -0.66543000           1.51005000         
H                    -0.27947000           0.22506000          -1.36109000         
H                    -2.39844000           1.26396000          -0.46658000         
H                    -1.12225000           2.47913000          -0.70745000         
H                     0.97192000           1.17251000           1.27189000         
H                     1.27327000           1.90478000          -0.30575000         
H                     1.96365000          -1.02698000           0.44362000         
H                     3.12773000           0.32659000           0.29550000         
H                    -1.49628000           1.89471000           0.92887000         
H                     2.27573000          -0.26904000          -1.15068000         
19
Image 12 energy:-0.03941 
C                    -0.70826000          -2.15173000          -0.13096000         
C                    -0.79070000          -0.76940000           0.44014000         
C                    -0.36908000           0.46939000          -0.28640000         
C                    -1.40444000           1.59958000          -0.11795000         
C                     1.03199000           0.95126000           0.18208000         
C                     2.14556000          -0.07093000          -0.05722000         
H                    -0.62485000          -2.14041000          -1.24235000         
H                    -1.60998000          -2.75171000           0.13200000         
H                     0.17122000          -2.72321000           0.25301000         
H                    -1.02876000          -0.66789000           1.50433000         
H                    -0.28826000           0.23346000          -1.36284000         
H                    -2.40046000           1.26555000          -0.44893000         
H                    -1.12500000           2.48933000          -0.70908000         
H                     0.97765000           1.18558000           1.25666000         
H                     1.27342000           1.90138000          -0.32399000         
H                     1.91930000          -0.99962000           0.48024000         
H                     3.12368000           0.28928000           0.29325000         
H                    -1.48483000           1.90314000           0.93753000         
H                     2.22723000          -0.32015000          -1.12338000         
19
Image 13 energy:-0.03945 
C                    -0.69571000          -2.15455000          -0.12581000         
C                    -0.81186000          -0.77202000           0.43421000         
C                    -0.36577000           0.46872000          -0.28336000         
C                    -1.39831000           1.60522000          -0.11436000         
C                     1.03256000           0.95602000           0.18311000         
C                     2.13971000          -0.07494000          -0.06660000         
H                    -0.53730000          -2.13470000          -1.20314000         
H                    -1.58773000          -2.76438000           0.07444000         
H                     0.14739000          -2.71697000           0.30772000         
H                    -1.06764000          -0.66554000           1.49706000         
H                    -0.28372000           0.22979000          -1.36123000         
H                    -2.39700000           1.27114000          -0.44660000         
H                    -1.11522000           2.49319000          -0.69724000         
H                     0.98051000           1.17663000           1.26853000         
H                     1.27217000           1.91196000          -0.31968000         
H                     1.92728000          -1.00167000           0.48830000         
H                     3.12060000           0.29792000           0.26736000         
H                    -1.48560000           1.90257000           0.93923000         
H                     2.20956000          -0.33881000          -1.13840000         
19
Image 14 energy:-0.03943 
C                    -0.67830000          -2.14825000          -0.12657000         
C                    -0.82156000          -0.76857000           0.43001000         
C                    -0.37667000           0.47360000          -0.28327000         
C                    -1.40901000           1.60985000          -0.11107000         
C                     1.03532000           0.94450000           0.18149000         
C                     2.14507000          -0.08607000          -0.06027000         
H                    -0.53928000          -2.12890000          -1.22749000         
H                    -1.57657000          -2.76489000           0.08804000         
H                     0.18903000          -2.70130000           0.30323000         
H                    -1.11018000          -0.66165000           1.48391000         
H                    -0.29359000           0.24284000          -1.36026000         
H                    -2.40069000           1.30110000          -0.43643000         
H                    -1.11656000           2.48850000          -0.68985000         
H                     0.98917000           1.19394000           1.25200000         
H                     1.28466000           1.87872000          -0.34149000         
H                     1.98626000          -1.00036000           0.53599000         
H                     3.12909000           0.33167000           0.21359000         
H                    -1.48298000           1.90853000           0.94561000         
H                     2.19360000          -0.38652000          -1.12799000         
19
Image 15 energy:-0.03924 
C                    -0.66178000          -2.14681000          -0.12576000         
C                    -0.82885000          -0.76742000           0.42265000         
C                    -0.38038000           0.47940000          -0.28151000         
C                    -1.40777000           1.61876000          -0.10178000         
C                     1.03442000           0.93935000           0.17553000         
C                     2.14121000          -0.09742000          -0.05821000         
H                    -0.46926000          -2.12964000          -1.20831000         
H                    -1.55808000          -2.76819000           0.04802000         
H                     0.17964000          -2.69428000           0.34378000         
H                    -1.14372000          -0.66211000           1.46567000         
H                    -0.30856000           0.25427000          -1.36235000         
H                    -2.41420000           1.26708000          -0.43210000         
H                    -1.14069000           2.52000000          -0.70654000         
H                     0.98423000           1.19492000           1.24763000         
H                     1.28259000           1.87302000          -0.35564000         
H                     2.00710000          -0.98439000           0.57711000         
H                     3.13147000           0.33440000           0.16429000         
H                    -1.47962000           1.92162000           0.95797000         
H                     2.15719000          -0.43471000          -1.10777000         
19
Image 16 energy:-0.03932 
C                    -0.63902000          -2.14662000          -0.12154000         
C                    -0.82567000          -0.76390000           0.41839000         
C                    -0.38579000           0.48163000          -0.29113000         
C                    -1.40116000           1.62597000          -0.09233000         
C                     1.01967000           0.93774000           0.16492000         
C                     2.12566000          -0.10925000          -0.05338000         
H                    -0.42473000          -2.13604000          -1.20279000         
H                    -1.54013000          -2.77004000           0.03587000         
H                     0.19525000          -2.69015000           0.36768000         
H                    -1.14894000          -0.65945000           1.45743000         
H                    -0.31777000           0.25724000          -1.36934000         
H                    -2.39157000           1.32562000          -0.43454000         
H                    -1.10231000           2.51423000          -0.64795000         
H                     0.97582000           1.20202000           1.24668000         
H                     1.27543000           1.87629000          -0.37440000         
H                     1.97378000          -0.98612000           0.58840000         
H                     3.12029000           0.31137000           0.16757000         
H                    -1.48313000           1.90463000           0.96495000         
H                     2.13394000          -0.45388000          -1.09637000         
19
Image 17 energy:-0.03929 
C                    -0.62510000          -2.14782000          -0.12284000         
C                    -0.83465000          -0.76706000           0.41300000         
C                    -0.39498000           0.47930000          -0.29388000         
C                    -1.40378000           1.62903000          -0.08307000         
C                     1.03842000           0.95306000           0.15668000         
C                     2.11280000          -0.11938000          -0.04320000         
H                    -0.38732000          -2.13363000          -1.20089000         
H                    -1.52550000          -2.77871000           0.01502000         
H                     0.20342000          -2.68516000           0.38564000         
H                    -1.15908000          -0.66731000           1.45408000         
H                    -0.33950000           0.25278000          -1.38120000         
H                    -2.41354000           1.32644000          -0.39497000         
H                    -1.11929000           2.52176000          -0.65893000         
H                     0.97594000           1.25164000           1.21047000         
H                     1.31070000           1.85656000          -0.41395000         
H                     1.94238000          -1.00041000           0.59149000         
H                     3.11179000           0.27302000           0.18757000         
H                    -1.44987000           1.91458000           0.97906000         
H                     2.12737000          -0.45455000          -1.09134000         
19
Image 18 energy:-0.03913 
C                    -0.60875000          -2.14364000          -0.11931000         
C                    -0.83947000          -0.76390000           0.40708000         
C                    -0.38740000           0.48917000          -0.29349000         
C                    -1.40808000           1.63547000          -0.07263000         
C                     1.01956000           0.93682000           0.13756000         
C                     2.11248000          -0.12761000          -0.03843000         
H                    -0.33960000          -2.12783000          -1.18851000         
H                    -1.51048000          -2.77584000          -0.00819000         
H                     0.20531000          -2.67808000           0.41370000         
H                    -1.17717000          -0.66128000           1.44340000         
H                    -0.32282000           0.27626000          -1.37164000         
H                    -2.42068000           1.33915000          -0.38268000         
H                    -1.12094000           2.53413000          -0.64160000         
H                     1.00045000           1.25585000           1.19660000         
H                     1.27396000           1.83089000          -0.44441000         
H                     1.92486000          -1.00433000           0.59958000         
H                     3.10203000           0.26653000           0.22039000         
H                    -1.44213000           1.90977000           0.99685000         
H                     2.15670000          -0.47850000          -1.08108000         
19
Image 19 energy:-0.03878 
C                    -0.59717000          -2.14323000          -0.11636000         
C                    -0.84314000          -0.76297000           0.40222000         
C                    -0.41614000           0.48251000          -0.30476000         
C                    -1.39800000           1.64061000          -0.05885000         
C                     1.02608000           0.93901000           0.12242000         
C                     2.11345000          -0.13247000          -0.03089000         
H                    -0.30459000          -2.12750000          -1.17938000         
H                    -1.49899000          -2.77796000          -0.02466000         