16
Image 1 energy:-0.04225 
C                     2.24148000           0.61892000           0.25009000         
C                     1.37912000          -0.43336000          -0.36817000         
C                    -0.00112000          -0.70640000           0.13727000         
C                    -1.04996000           0.34358000          -0.32670000         
C                    -2.44605000           0.07520000           0.24859000         
H                     2.02069000           0.74087000           1.32205000         
H                     3.31000000           0.38484000           0.14934000         
H                     1.65040000          -0.80436000          -1.36081000         
H                     0.00033000          -0.71714000           1.24573000         
H                    -0.33978000          -1.70588000          -0.18574000         
H                    -1.08608000           0.34622000          -1.42783000         
H                    -0.70634000           1.34641000          -0.02420000         
H                    -3.17278000           0.82960000          -0.09044000         
H                    -2.42690000           0.09221000           1.34895000         
H                     2.09648000           1.61488000          -0.21479000         
H                    -2.81622000          -0.91242000          -0.06072000         
16
Image 2 energy:-0.04218 
C                     2.21720000           0.63248000           0.24918000         
C                     1.38344000          -0.44557000          -0.36077000         
C                    -0.00209000          -0.72506000           0.12640000         
C                    -1.03812000           0.34197000          -0.32706000         
C                    -2.43483000           0.08858000           0.25349000         
H                     2.01211000           0.73257000           1.33106000         
H                     3.29914000           0.44420000           0.11454000         
H                     1.68260000          -0.83354000          -1.33421000         
H                    -0.01257000          -0.74073000           1.23140000         
H                    -0.34183000          -1.71509000          -0.21052000         
H                    -1.08390000           0.35843000          -1.43046000         
H                    -0.68147000           1.33868000          -0.01793000         
H                    -3.14945000           0.85958000          -0.07441000         
H                    -2.40525000           0.09930000           1.35465000         
H                     2.01792000           1.62970000          -0.20491000         
H                    -2.83296000          -0.89181000          -0.05948000         
16
Image 3 energy:-0.04214 
C                     2.21869000           0.64179000           0.24098000         
C                     1.39474000          -0.45446000          -0.35563000         
C                    -0.00165000          -0.72932000           0.11579000         
C                    -1.04138000           0.34446000          -0.31243000         
C                    -2.44435000           0.09076000           0.25360000         
H                     1.96675000           0.79804000           1.30546000         
H                     3.29860000           0.43464000           0.17527000         
H                     1.72012000          -0.88204000          -1.31152000         
H                    -0.01992000          -0.78250000           1.22464000         
H                    -0.33536000          -1.71348000          -0.25134000         
H                    -1.07819000           0.38608000          -1.41130000         
H                    -0.68485000           1.32901000           0.02541000         
H                    -3.14800000           0.87618000          -0.07357000         
H                    -2.43600000           0.08893000           1.35457000         
H                     2.05654000           1.61697000          -0.26983000         
H                    -2.84036000          -0.88050000          -0.08084000         
16
Image 4 energy:-0.04201 
C                     2.22252000           0.63662000           0.23426000         
C                     1.38344000          -0.45074000          -0.36056000         
C                    -0.00252000          -0.72951000           0.12933000         
C                    -1.03325000           0.35694000          -0.29733000         
C                    -2.44472000           0.07979000           0.23992000         
H                     1.94324000           0.83684000           1.26764000         
H                     3.29764000           0.40842000           0.21081000         
H                     1.68314000          -0.85064000          -1.33176000         
H                    -0.00877000          -0.76972000           1.23598000         
H                    -0.34690000          -1.71159000          -0.22863000         
H                    -1.05989000           0.41351000          -1.40005000         
H                    -0.68168000           1.33664000           0.05737000         
H                    -3.15820000           0.84678000          -0.09015000         
H                    -2.45099000           0.06334000           1.34115000         
H                     2.10940000           1.59157000          -0.30631000         
H                    -2.82095000          -0.89232000          -0.10854000         
16
Image 5 energy:-0.04210 
C                     2.24114000           0.62365000           0.23728000         
C                     1.37898000          -0.43808000          -0.36727000         
C                    -0.00273000          -0.70812000           0.13659000         
C                    -1.04582000           0.35784000          -0.30502000         
C                    -2.44867000           0.06418000           0.24117000         
H                     1.93377000           0.84718000           1.27472000         
H                     3.30617000           0.33364000           0.24973000         
H                     1.66937000          -0.84550000          -1.33987000         
H                     0.00248000          -0.74285000           1.24534000         
H                    -0.35170000          -1.69855000          -0.20735000         
H                    -1.06322000           0.40312000          -1.40597000         
H                    -0.70573000           1.34853000           0.04278000         
H                    -3.16948000           0.84094000          -0.08465000         
H                    -2.44457000           0.03882000           1.34268000         
H                     2.18557000           1.58423000          -0.32305000         
H                    -2.82611000          -0.91260000          -0.11278000         
16
Image 6 energy:-0.04198 
C                     2.25589000           0.61391000           0.24939000         
C                     1.37862000          -0.42572000          -0.37097000         
C                    -0.00014000          -0.70274000           0.13522000         
C                    -1.05568000           0.34644000          -0.32156000         
C                    -2.45662000           0.06820000           0.24804000         
H                     1.97888000           0.80293000           1.30371000         
H                     3.32339000           0.32767000           0.22179000         
H                     1.65888000          -0.81038000          -1.35647000         
H                    -0.00491000          -0.70887000           1.24020000         
H                    -0.33861000          -1.69552000          -0.19127000         
H                    -1.09559000           0.37183000          -1.42657000         
H                    -0.72427000           1.35158000          -0.00299000         
H                    -3.19078000           0.80183000          -0.07802000         
H                    -2.43883000           0.07868000           1.34642000         
H                     2.18631000           1.58959000          -0.28013000         
H                    -2.80795000          -0.91981000          -0.06367000         
16
Image 7 energy:-0.04198 
C                     2.27145000           0.60485000           0.25557000         
C                     1.37812000          -0.41698000          -0.36849000         
C                    -0.00649000          -0.68859000           0.13910000         
C                    -1.07037000           0.34040000          -0.33640000         
C                    -2.45199000           0.06031000           0.25168000         
H                     2.03622000           0.74951000           1.32430000         
H                     3.34242000           0.33138000           0.16668000         
H                     1.63822000          -0.78108000          -1.36692000         
H                    -0.00539000          -0.67919000           1.24720000         
H                    -0.32402000          -1.70147000          -0.16723000         
H                    -1.11455000           0.33428000          -1.43812000         
H                    -0.73347000           1.34580000          -0.04271000         
H                    -3.17249000           0.83334000          -0.07778000         
H                    -2.42697000           0.07403000           1.35625000         
H                     2.16578000           1.60428000          -0.23278000         
H                    -2.84324000          -0.92002000          -0.07173000         
16
Image 8 energy:-0.04202 
C                     2.27134000           0.60086000           0.26354000         
C                     1.36896000          -0.39891000          -0.38279000         
C                     0.00523000          -0.69604000           0.14488000         
C                    -1.06164000           0.32303000          -0.34018000         
C                    -2.46483000           0.07397000           0.25207000         
H                     2.05529000           0.70084000           1.34370000         
H                     3.33670000           0.32321000           0.15274000         
H                     1.61850000          -0.73818000          -1.39112000         
H                     0.01243000          -0.67394000           1.25269000         
H                    -0.31030000          -1.70973000          -0.14327000         
H                    -1.11004000           0.28918000          -1.44146000         
H                    -0.72569000           1.33949000          -0.07533000         
H                    -3.19606000           0.82222000          -0.10006000         
H                    -2.43713000           0.12089000           1.35141000         
H                     2.17720000           1.61102000          -0.18381000         
H                    -2.83856000          -0.92889000          -0.02153000         
16
Image 9 energy:-0.04199 
C                     2.28328000           0.58823000           0.26762000         
C                     1.37060000          -0.40291000          -0.37988000         
C                    -0.00131000          -0.67697000           0.14730000         
C                    -1.07786000           0.33471000          -0.35476000         
C                    -2.45529000           0.06096000           0.25556000         
H                     2.07921000           0.66507000           1.34655000         
H                     3.34790000           0.33016000           0.13157000         
H                     1.60674000          -0.73036000          -1.39832000         
H                     0.01287000          -0.62916000           1.25854000         
H                    -0.32902000          -1.68744000          -0.12392000         
H                    -1.11983000           0.28285000          -1.44986000         
H                    -0.74670000           1.35838000          -0.10108000         
H                    -3.20924000           0.77413000          -0.09626000         
H                    -2.42237000           0.11317000           1.35624000         
H                     2.15765000           1.61897000          -0.14859000         
H                    -2.79903000          -0.95297000          -0.01091000         
16
Image 10 energy:-0.04106 
C                     2.28537000           0.58873000           0.27027000         
C                     1.36933000          -0.39676000          -0.38113000         
C                     0.00169000          -0.67611000           0.15082000         
C                    -1.07388000           0.31781000          -0.35671000         
C                    -2.46105000           0.06913000           0.25468000         
H                     2.13963000           0.61003000           1.37096000         
H                     3.34676000           0.34624000           0.06759000         
H                     1.60401000          -0.71607000          -1.39805000         
H                    -0.01373000          -0.60077000           1.23392000         
H                    -0.30284000          -1.71935000          -0.10900000         
H                    -1.17057000           0.29995000          -1.46898000         
H                    -0.72633000           1.32348000          -0.10292000         
H                    -3.20790000           0.78242000          -0.11358000         
H                    -2.42536000           0.13931000           1.35543000         
H                     2.12478000           1.63676000          -0.09498000         
H                    -2.81476000          -0.94470000          -0.00141000         
16
Image 11 energy:-0.04179 
C                     2.28477000           0.58555000           0.27967000         
C                     1.37120000          -0.39473000          -0.38257000         
C                     0.00301000          -0.67644000           0.14750000         
C                    -1.08048000           0.31454000          -0.36722000         
C                    -2.45731000           0.07149000           0.26099000         
H                     2.17194000           0.57364000           1.37689000         
H                     3.34378000           0.38393000           0.03730000         
H                     1.58690000          -0.67636000          -1.41757000         
H                     0.02785000          -0.64296000           1.25996000         
H                    -0.32784000          -1.68652000          -0.12687000         
H                    -1.12681000           0.21485000          -1.45957000         
H                    -0.77001000           1.35605000          -0.15907000         
H                    -3.20312000           0.79331000          -0.13005000         
H                    -2.41723000           0.19377000           1.36437000         
H                     2.09138000           1.62406000          -0.05075000         
H                    -2.81973000          -0.94811000           0.03927000         
16
Image 12 energy:-0.04198 
C                     2.27927000           0.58320000           0.28796000         
C                     1.37094000          -0.39426000          -0.38431000         
C                     0.00051000          -0.67578000           0.14451000         
C                    -1.07860000           0.30942000          -0.38286000         
C                    -2.44898000           0.07762000           0.27097000         
H                     2.20408000           0.51131000           1.38369000         
H                     3.32951000           0.43386000           0.00331000         
H                     1.58234000          -0.66149000          -1.41974000         
H                     0.00379000          -0.63182000           1.24411000         
H                    -0.31585000          -1.70240000          -0.13236000         
H                    -1.15913000           0.20495000          -1.48044000         
H                    -0.73864000           1.34305000          -0.19277000         
H                    -3.20451000           0.75481000          -0.14230000         
H                    -2.40083000           0.25407000           1.34791000         
H                     2.03463000           1.63690000           0.02999000         
H                    -2.80155000          -0.95495000           0.11737000         
16
Image 13 energy:-0.04168 
C                     2.28487000           0.57672000           0.28700000         
C                     1.36844000          -0.39163000          -0.38656000         
C                    -0.00139000          -0.67306000           0.14647000         
C                    -1.07737000           0.31543000          -0.37320000         
C                    -2.45124000           0.07371000           0.26445000         
H                     2.24036000           0.48793000           1.38031000         
H                     3.32743000           0.44376000          -0.02255000         
H                     1.56295000          -0.63780000          -1.43408000         
H                     0.00681000          -0.63912000           1.24940000         
H                    -0.31874000          -1.70040000          -0.13264000         
H                    -1.15618000           0.21542000          -1.47182000         
H                    -0.73758000           1.34372000          -0.17790000         
H                    -3.22848000           0.69058000          -0.23106000         
H                    -2.43920000           0.33516000           1.34394000         
H                     2.02070000           1.62697000           0.05635000         
H                    -2.74631000          -0.98940000           0.17626000         
16
Image 14 energy:-0.04113 
C                     2.28420000           0.57911000           0.27594000         
C                     1.36502000          -0.39566000          -0.38681000         
C                     0.00601000          -0.67915000           0.16184000         
C                    -1.07002000           0.31989000          -0.35788000         
C                    -2.45950000           0.07174000           0.24851000         
H                     2.23274000           0.48920000           1.38746000         
H                     3.34143000           0.43134000          -0.04384000         
H                     1.55555000          -0.64186000          -1.43264000         
H                     0.01751000          -0.62341000           1.25788000         
H                    -0.33922000          -1.67446000          -0.12140000         
H                    -1.12548000           0.23750000          -1.45950000         
H                    -0.77000000           1.37886000          -0.15678000         
H                    -3.22727000           0.70857000          -0.19705000         
H                    -2.43863000           0.26874000           1.32769000         
H                     2.02223000           1.64126000           0.02723000         
H                    -2.76550000          -0.97653000           0.10643000         
16
Image 15 energy:-0.04148 
C                     2.28762000           0.57944000           0.26915000         
C                     1.36857000          -0.39944000          -0.38696000         
C                     0.00114000          -0.66797000           0.16030000         
C                    -1.07700000           0.32811000          -0.34940000         
C                    -2.46210000           0.06399000           0.24401000         
H                     2.18370000           0.53823000           1.37016000         
H                     3.34406000           0.39331000           0.00803000         
H                     1.55095000          -0.64559000          -1.43593000         
H                     0.03513000          -0.63638000           1.27384000         
H                    -0.31418000          -1.70804000          -0.09959000         
H                    -1.09990000           0.25185000          -1.44494000         
H                    -0.72665000           1.33095000          -0.09782000         
H                    -3.21452000           0.72270000          -0.20136000         
H                    -2.46847000           0.23998000           1.33392000         
H                     2.07643000           1.63626000          -0.02884000         
H                    -2.77426000          -0.98176000           0.07150000         
16
Image 16 energy:-0.04177 
C                     2.29557000           0.57886000           0.25979000         
C                     1.36214000          -0.39604000          -0.38235000         
C                     0.00395000          -0.67420000           0.16940000         
C                    -1.07020000           0.33507000          -0.33714000         
C                    -2.46546000           0.05345000           0.23694000         
H                     2.16914000           0.59211000           1.35524000         
H                     3.34988000           0.35322000           0.03696000         
H                     1.54302000          -0.65275000          -1.43150000         
H                     0.01019000          -0.62395000           1.26420000         
H                    -0.32723000          -1.68795000          -0.11077000         
H                    -1.11287000           0.28745000          -1.44093000         
H                    -0.76823000           1.37279000          -0.09337000         
H                    -3.20778000           0.75373000          -0.20354000         
H                    -2.49066000           0.18332000           1.33676000         
H                     2.12220000           1.62337000          -0.09040000         
H                    -2.78791000          -0.97673000           0.01263000         
16
Image 17 energy:-0.04136 
C                     2.31004000           0.57297000           0.25535000         
C                     1.36520000          -0.39473000          -0.37777000         
C                    -0.00167000          -0.65224000           0.17251000         
C                    -1.07569000           0.33213000          -0.33541000         
C                    -2.47677000           0.04508000           0.23010000         
H                     2.17065000           0.62123000           1.35422000         
H                     3.37146000           0.31943000           0.04876000         
H                     1.54769000          -0.66816000          -1.42461000         
H                     0.03370000          -0.63476000           1.28858000         
H                    -0.34329000          -1.65015000          -0.10932000         
H                    -1.12299000           0.31009000          -1.44406000         
H                    -0.75152000           1.34411000          -0.06341000         
H                    -3.22838000           0.74363000          -0.15754000         
H                    -2.47719000           0.12945000           1.32462000         
H                     2.15714000           1.61269000          -0.13154000         
H                    -2.79928000          -0.97515000          -0.02824000         
16
Image 18 energy:-0.04117 
C                     2.31045000           0.57301000           0.25319000         
C                     1.36669000          -0.39659000          -0.37981000         
C                    -0.00117000          -0.65649000           0.16512000         
C                    -1.08306000           0.35405000          -0.32803000         
C                    -2.47601000           0.03774000           0.23041000         
H                     2.13102000           0.65933000           1.34790000         
H                     3.37307000           0.27682000           0.09673000         
H                     1.57422000          -0.70687000          -1.40933000         
H                     0.01237000          -0.61033000           1.26463000         
H                    -0.30974000          -1.70652000          -0.08662000         
H                    -1.08039000           0.29543000          -1.41929000         
H                    -0.79470000           1.38794000          -0.05750000         
H                    -3.23587000           0.72959000          -0.14729000         
H                    -2.48283000           0.10624000           1.32787000         
H                     2.20689000           1.60337000          -0.17407000         
H                    -2.78582000          -0.98384000          -0.03909000         
16
Image 19 energy:-0.04166 
C                     2.31556000           0.56868000           0.25296000         
C                     1.36318000          -0.39150000          -0.38353000         
C                     0.00257000          -0.65285000           0.17161000         
C                    -1.08820000           0.35871000          -0.33336000         
C                    -2.47312000           0.02619000           0.23296000         
H                     2.07700000           0.70919000           1.32730000         
H                     3.37206000           0.23366000           0.17013000         
H                     1.57795000          -0.72876000          -1.40523000         
H                     0.03097000          -0.60205000           1.27475000         
H                    -0.34803000          -1.65714000          -0.10017000         
H                    -1.11853000           0.35269000          -1.43860000         
H                    -0.78095000           1.37173000          -0.03515000         
H                    -3.23709000           0.73396000          -0.15248000         
H                    -2.48618000           0.08392000           1.33608000         
H                     2.26965000           1.57900000          -0.22308000         
H                    -2.78562000          -0.99530000          -0.04666000         
16
Image 20 energy:-0.04142 
C                     2.32033000           0.56843000           0.25217000         
C                     1.36449000          -0.38663000          -0.38303000         
C                    -0.01139000          -0.63584000           0.15435000         
C                    -1.07933000           0.34585000          -0.31966000         
C                    -2.47945000           0.02481000           0.23482000         
H                     2.04291000           0.75648000           1.30447000         
H                     3.35783000           0.19397000           0.22863000         
H                     1.59548000          -0.76428000          -1.38276000         
H                     0.01257000          -0.58796000           1.25741000         
H                    -0.34981000          -1.65566000          -0.11326000         
H                    -1.08454000           0.32984000          -1.42191000         
H                    -0.78020000           1.37269000          -0.02750000         
H                    -3.24884000           0.72446000          -0.12516000         
H                    -2.46953000           0.06083000           1.33539000         
H                     2.33225000           1.55458000          -0.26127000         
H                    -2.77331000          -0.99220000          -0.06361000         
16
Image 21 energy:-0.04156 
C                     2.33181000           0.57028000           0.25198000         
C                     1.36619000          -0.38180000          -0.37774000         
C                     0.00197000          -0.65244000           0.15889000         
C                    -1.10538000           0.36763000          -0.33498000         
C                    -2.48283000           0.01949000           0.23913000         
H                     2.04918000           0.80233000           1.29246000         
H                     3.35562000           0.15710000           0.26229000         
H                     1.61928000          -0.79931000          -1.35384000         
H                     0.01685000          -0.63256000           1.26484000         
H                    -0.32975000          -1.66637000          -0.12556000         
H                    -1.13345000           0.35999000          -1.43457000         
H                    -0.80419000           1.37935000          -0.03267000         
H                    -3.24633000           0.72644000          -0.10334000         
H                    -2.46440000           0.04205000           1.33942000         
H                     2.39593000           1.53619000          -0.29055000         
H                    -2.78941000          -0.99019000          -0.07168000         
16
Image 22 energy:-0.04097 
C                     2.35170000           0.57187000           0.25320000         
C                     1.38276000          -0.38597000          -0.37069000         
C                    -0.01404000          -0.63239000           0.13895000         
C                    -1.10637000           0.35446000          -0.32999000         
C                    -2.50034000           0.01538000           0.24650000         
H                     2.05980000           0.82978000           1.28459000         
H                     3.37072000           0.14565000           0.28349000         
H                     1.65127000          -0.82828000          -1.33240000         
H                     0.01321000          -0.64387000           1.25736000         
H                    -0.31884000          -1.66572000          -0.14713000         
H                    -1.16671000           0.36979000          -1.43748000         
H                    -0.84152000           1.39376000          -0.03943000         
H                    -3.24750000           0.73752000          -0.09883000         