19
Image 1 energy:-0.00921 
C                     2.85586000          -0.01697000          -0.04359000         
C                     1.93549000           0.92847000           0.04187000         
C                    -1.06445000          -0.15922000           0.00077000         
C                    -0.84210000          -0.87001000           1.28859000         
C                    -1.92788000           1.05276000          -0.01547000         
C                    -0.82246000          -0.89037000          -1.27210000         
H                     3.22135000          -0.36952000          -1.00075000         
H                     3.27846000          -0.48027000           0.84046000         
H                     1.50734000           1.39090000          -0.84077000         
H                     1.56372000           1.27653000           0.99847000         
H                     0.04633000          -1.50837000           1.24102000         
H                    -1.69457000          -1.52240000           1.55043000         
H                    -0.71758000          -0.16884000           2.12050000         
H                    -1.76824000           1.67410000           0.86557000         
H                    -2.99469000           0.79198000          -0.02424000         
H                    -1.75131000           1.66322000          -0.90071000         
H                     0.07251000          -1.51521000          -1.20916000         
H                    -0.70224000          -0.20338000          -2.11494000         
H                    -1.66198000          -1.56041000          -1.52671000         
19
Image 2 energy:-0.00922 
C                     2.85553000          -0.02042000          -0.04289000         
C                     1.93605000           0.92552000           0.04298000         
C                    -1.06792000          -0.15671000          -0.00202000         
C                    -0.84581000          -0.87081000           1.28481000         
C                    -1.93019000           1.05634000          -0.01237000         
C                    -0.81562000          -0.88957000          -1.27195000         
H                     3.22537000          -0.36749000          -1.00149000         
H                     3.27719000          -0.48611000           0.84037000         
H                     1.51246000           1.38717000          -0.83874000         
H                     1.56697000           1.27605000           0.99889000         
H                     0.06047000          -1.47861000           1.25307000         
H                    -1.67774000          -1.55053000           1.51934000         
H                    -0.76272000          -0.17491000           2.12241000         
H                    -1.71761000           1.70757000           0.84418000         
H                    -3.00398000           0.79937000           0.04804000         
H                    -1.79630000           1.63903000          -0.93088000         
H                     0.12068000          -1.45006000          -1.22448000         
H                    -0.76578000          -0.21345000          -2.12623000         
H                    -1.61117000          -1.61619000          -1.48752000         
19
Image 3 energy:-0.00920 
C                     2.86095000          -0.02130000          -0.04609000         
C                     1.93893000           0.92299000           0.03647000         
C                    -1.07308000          -0.15452000           0.00364000         
C                    -0.85045000          -0.87480000           1.28633000         
C                    -1.93079000           1.06125000          -0.01460000         
C                    -0.81454000          -0.88725000          -1.26538000         
H                     3.22190000          -0.38165000          -1.00184000         
H                     3.29023000          -0.47499000           0.83958000         
H                     1.50428000           1.37731000          -0.84782000         
H                     1.57061000           1.27647000           0.99240000         
H                     0.09921000          -1.41982000           1.27267000         
H                    -1.64107000          -1.62041000           1.47818000         
H                    -0.84372000          -0.19282000           2.14076000         
H                    -1.77088000           1.68096000           0.86686000         
H                    -2.99876000           0.80943000          -0.02794000         
H                    -1.74659000           1.67150000          -0.89744000         
H                     0.13970000          -1.42198000          -1.22409000         
H                    -0.79220000          -0.21290000          -2.12632000         
H                    -1.59257000          -1.64338000          -1.46941000         
19
Image 4 energy:-0.00917 
C                     2.86086000          -0.01799000          -0.04787000         
C                     1.93738000           0.92372000           0.03658000         
C                    -1.06874000          -0.15593000           0.00557000         
C                    -0.84703000          -0.87322000           1.29015000         
C                    -1.93042000           1.05728000          -0.01719000         
C                    -0.81968000          -0.88878000          -1.26588000         
H                     3.23053000          -0.36729000          -1.00536000         
H                     3.28634000          -0.47799000           0.83632000         
H                     1.51152000           1.37959000          -0.84626000         
H                     1.56819000           1.27526000           0.99276000         
H                     0.08414000          -1.44516000           1.26890000         
H                    -1.65466000          -1.59126000           1.50229000         
H                    -0.80624000          -0.18510000           2.13677000         
H                    -1.82595000           1.64437000           0.90390000         
H                    -3.00337000           0.79889000          -0.11249000         
H                    -1.68885000           1.70475000          -0.87145000         
H                     0.09562000          -1.47911000          -1.21167000         
H                    -0.73717000          -0.20989000          -2.11383000         
H                    -1.63619000          -1.58392000          -1.49604000         
19
Image 5 energy:-0.00921 
C                     2.86332000          -0.01686000          -0.04827000         
C                     1.93998000           0.92565000           0.04366000         
C                    -1.06735000          -0.15831000           0.00251000         
C                    -0.84663000          -0.87003000           1.29066000         
C                    -1.93431000           1.05140000          -0.01754000         
C                    -0.82017000          -0.88749000          -1.27002000         
H                     3.22693000          -0.36375000          -1.00885000         
H                     3.29126000          -0.48191000           0.83253000         
H                     1.50613000           1.39017000          -0.83628000         
H                     1.57023000           1.26944000           1.00154000         
H                     0.05413000          -1.48654000           1.25575000         
H                    -1.68460000          -1.54065000           1.53387000         
H                    -0.75296000          -0.17081000           2.12528000         
H                    -1.77981000           1.67430000           0.86370000         
H                    -3.00100000           0.78873000          -0.03129000         
H                    -1.75512000           1.66198000          -0.90260000         
H                     0.06951000          -1.52198000          -1.19896000         
H                    -0.68495000          -0.19735000          -2.11060000         
H                    -1.66532000          -1.54983000          -1.53589000         
19
Image 6 energy:-0.00919 
C                     2.86400000          -0.01887000          -0.04364000         
C                     1.94072000           0.92233000           0.04482000         
C                    -1.07121000          -0.15591000          -0.00280000         
C                    -0.84818000          -0.86807000           1.28444000         
C                    -1.93758000           1.05395000          -0.01209000         
C                    -0.81572000          -0.88863000          -1.27293000         
H                     3.23584000          -0.36233000          -1.00191000         
H                     3.28652000          -0.48534000           0.83843000         
H                     1.51735000           1.38568000          -0.83493000         
H                     1.56885000           1.26609000           1.00325000         
H                     0.05244000          -1.48789000           1.24532000         
H                    -1.68846000          -1.53916000           1.53157000         
H                    -0.74715000          -0.17081000           2.12058000         
H                    -1.71763000           1.71114000           0.83783000         
H                    -3.00883000           0.79198000           0.06397000         
H                    -1.81731000           1.63064000          -0.93591000         
H                     0.11288000          -1.45744000          -1.22094000         
H                    -0.75107000          -0.21207000          -2.12329000         
H                    -1.61564000          -1.60384000          -1.49778000         
19
Image 7 energy:-0.00918 
C                     2.86758000          -0.02075000          -0.04593000         
C                     1.94095000           0.91905000           0.04304000         
C                    -1.07469000          -0.15373000           0.00034000         
C                    -0.84944000          -0.87109000           1.28474000         
C                    -1.93662000           1.05953000          -0.01452000         
C                    -0.81616000          -0.88705000          -1.26796000         
H                     3.23153000          -0.37133000          -1.00460000         
H                     3.29739000          -0.47963000           0.83699000         
H                     1.50348000           1.37723000          -0.83866000         
H                     1.57147000           1.26483000           1.00080000         
H                     0.07897000          -1.44380000           1.26239000         
H                    -1.65695000          -1.58590000           1.49474000         
H                    -0.80788000          -0.18473000           2.13048000         
H                    -1.75863000           1.69111000           0.85793000         
H                    -3.00648000           0.80464000          -0.00073000         
H                    -1.77228000           1.66007000          -0.90991000         
H                     0.15230000          -1.40196000          -1.23305000         
H                    -0.81874000          -0.21419000          -2.13378000         
H                    -1.58148000          -1.66350000          -1.45916000         
19
Image 8 energy:-0.00920 
C                     2.86770000          -0.01914000          -0.05259000         
C                     1.94355000           0.92025000           0.04044000         
C                    -1.07368000          -0.15402000           0.00536000         
C                    -0.85297000          -0.87194000           1.28984000         
C                    -1.93722000           1.05736000          -0.01811000         
C                    -0.81580000          -0.88664000          -1.26396000         
H                     3.23418000          -0.36135000          -1.01424000         
H                     3.29865000          -0.48419000           0.82652000         
H                     1.51543000           1.38254000          -0.83781000         
H                     1.57471000           1.26344000           0.99950000         
H                     0.10071000          -1.41346000           1.27998000         
H                    -1.64224000          -1.62177000           1.48353000         
H                    -0.85186000          -0.18594000           2.14410000         
H                    -1.81228000           1.65891000           0.88563000         
H                    -3.00679000           0.79809000          -0.08056000         
H                    -1.72018000           1.68890000          -0.88467000         
H                     0.11234000          -1.45709000          -1.21195000         
H                    -0.75216000          -0.21194000          -2.11616000         
H                    -1.61722000          -1.60210000          -1.48542000         
19
Image 9 energy:-0.00920 
C                     2.87306000          -0.01534000          -0.05137000         
C                     1.94357000           0.92135000           0.04319000         
C                    -1.07006000          -0.15670000           0.00435000         
C                    -0.85024000          -0.86932000           1.29206000         
C                    -1.94076000           1.05063000          -0.01852000         
C                    -0.82019000          -0.88605000          -1.26823000         
H                     3.23923000          -0.35847000          -1.01171000         
H                     3.30205000          -0.47991000           0.82886000         
H                     1.50610000           1.38343000          -0.83569000         
H                     1.57321000           1.26173000           1.00219000         
H                     0.06021000          -1.46771000           1.26769000         
H                    -1.67526000          -1.55629000           1.51865000         
H                    -0.78047000          -0.17499000           2.12937000         
H                    -1.80409000           1.66521000           0.87551000         
H                    -3.01026000           0.78475000          -0.05752000         
H                    -1.74359000           1.67262000          -0.89625000         
H                     0.06657000          -1.52398000          -1.19335000         
H                    -0.67788000          -0.19403000          -2.10674000         
H                    -1.66770000          -1.54302000          -1.53854000         
19
Image 10 energy:-0.00916 
C                     2.86990000          -0.01701000          -0.04790000         
C                     1.94438000           0.92040000           0.04908000         
C                    -1.07234000          -0.15557000          -0.00178000         
C                    -0.84781000          -0.86497000           1.28728000         
C                    -1.94435000           1.04960000          -0.01575000         
C                    -0.81723000          -0.88742000          -1.27241000         
H                     3.23939000          -0.35287000          -1.01021000         
H                     3.30021000          -0.48514000           0.82959000         
H                     1.51757000           1.39000000          -0.82643000         
H                     1.57279000           1.25331000           1.01245000         
H                     0.03546000          -1.51421000           1.23223000         
H                    -1.70744000          -1.50952000           1.56146000         
H                    -0.70634000          -0.16297000           2.11714000         
H                    -1.76194000           1.68786000           0.84971000         
H                    -3.00904000           0.78008000           0.01531000         
H                    -1.79945000           1.64469000          -0.91819000         
H                     0.09629000          -1.48388000          -1.20905000         
H                    -0.71905000          -0.20506000          -2.11803000         
H                    -1.63675000          -1.57837000          -1.51840000         
19
Image 11 energy:-0.00920 
C                     2.87229000          -0.01912000          -0.05307000         
C                     1.94512000           0.91873000           0.05227000         
C                    -1.07400000          -0.15517000          -0.00103000         
C                    -0.85425000          -0.86728000           1.28629000         
C                    -1.94207000           1.05433000          -0.01594000         
C                    -0.81332000          -0.88667000          -1.26945000         
H                     3.23683000          -0.35249000          -1.01726000         
H                     3.29946000          -0.49600000           0.82153000         
H                     1.50839000           1.39133000          -0.82110000         
H                     1.57632000           1.25170000           1.01337000         
H                     0.06022000          -1.45956000           1.26577000         
H                    -1.67613000          -1.55895000           1.50718000         
H                    -0.79452000          -0.17218000           2.12555000         
H                    -1.73418000           1.70982000           0.83762000         
H                    -3.01436000           0.79383000           0.04405000         
H                    -1.81023000           1.63423000          -0.93465000         
H                     0.13595000          -1.42710000          -1.22681000         
H                    -0.78630000          -0.21144000          -2.12858000         
H                    -1.59424000          -1.63677000          -1.47558000         
19
Image 12 energy:-0.00917 
C                     2.87692000          -0.01910000          -0.05337000         
C                     1.94895000           0.91646000           0.04344000         
C                    -1.08003000          -0.15186000           0.00381000         
C                    -0.85564000          -0.87113000           1.28821000         
C                    -1.94539000           1.05802000          -0.01802000         
C                    -0.81480000          -0.88587000          -1.26356000         
H                     3.24557000          -0.35468000          -1.01728000         
H                     3.31054000          -0.48545000           0.82393000         
H                     1.51714000           1.38064000          -0.83283000         
H                     1.57857000           1.25132000           1.00610000         
H                     0.10548000          -1.40158000           1.27903000         
H                    -1.63702000          -1.63287000           1.47416000         
H                    -0.86566000          -0.18864000           2.14455000         
H                    -1.79033000           1.67900000           0.86296000         
H                    -3.01142000           0.80058000          -0.03347000         
H                    -1.76215000           1.66843000          -0.90129000         
H                     0.12717000          -1.43915000          -1.20708000         
H                    -0.76182000          -0.21063000          -2.11993000         
H                    -1.60404000          -1.62096000          -1.48498000         
19
Image 13 energy:-0.00917 
C                     2.88133000          -0.01500000          -0.05526000         
C                     1.94663000           0.91546000           0.04535000         
C                    -1.07283000          -0.15378000           0.00561000         
C                    -0.85442000          -0.86726000           1.29142000         
C                    -1.94661000           1.05112000          -0.01963000         
C                    -0.81812000          -0.88446000          -1.26627000         
H                     3.24413000          -0.35785000          -1.01438000         
H                     3.31488000          -0.47761000           0.82287000         
H                     1.50464000           1.37985000          -0.83074000         
H                     1.57537000           1.24762000           1.00698000         
H                     0.06489000          -1.45477000           1.26877000         
H                    -1.67259000          -1.56828000           1.51218000         
H                    -0.79761000          -0.17796000           2.13375000         
H                    -1.83713000           1.65061000           0.89318000         
H                    -3.01776000           0.77822000          -0.09582000         
H                    -1.72544000           1.69087000          -0.88473000         
H                     0.09229000          -1.48170000          -1.20847000         
H                    -0.72629000          -0.20143000          -2.11229000         
H                    -1.63850000          -1.57613000          -1.50576000         
19
Image 14 energy:-0.00917 
C                     2.87710000          -0.01643000          -0.05364000         
C                     1.94901000           0.91831000           0.05268000         
C                    -1.07496000          -0.15626000          -0.00040000         
C                    -0.85120000          -0.86443000           1.29040000         
C                    -1.95012000           1.04724000          -0.01856000         
C                    -0.81673000          -0.88492000          -1.27056000         
H                     3.24938000          -0.33706000          -1.02242000         
H                     3.30846000          -0.49574000           0.81821000         
H                     1.51914000           1.39315000          -0.81844000         
H                     1.57825000           1.24658000           1.01613000         
H                     0.04237000          -1.49346000           1.25057000         
H                    -1.69772000          -1.52191000           1.54704000         
H                    -0.73961000          -0.15824000           2.12028000         
H                    -1.77694000           1.68403000           0.84774000         
H                    -3.01360000           0.77969000           0.00068000         
H                    -1.79691000           1.64453000          -0.91538000         
H                     0.08631000          -1.50087000          -1.19799000         
H                    -0.69548000          -0.19633000          -2.11287000         
H                    -1.64855000          -1.56235000          -1.53272000         
19
Image 15 energy:-0.00912 
C                     2.88144000          -0.01841000          -0.05447000         
C                     1.95220000           0.91630000           0.05495000         
C                    -1.07826000          -0.15299000          -0.00144000         
C                    -0.85690000          -0.86467000           1.28552000         
C                    -1.95341000           1.05103000          -0.01610000         
C                    -0.81097000          -0.88477000          -1.27025000         
H                     3.24091000          -0.35518000          -1.01725000         
H                     3.31155000          -0.49292000           0.81901000         
H                     1.51172000           1.39030000          -0.81682000         
H                     1.58364000           1.24067000           1.01980000         
H                     0.05493000          -1.46599000           1.25515000         
H                    -1.68541000          -1.55317000           1.51874000         
H                    -0.78101000          -0.17162000           2.12542000         
H                    -1.72643000           1.72281000           0.82346000         
H                    -3.02417000           0.78134000           0.07917000         
H                    -1.85031000           1.61608000          -0.95186000         
H                     0.12435000          -1.43987000          -1.21776000         
H                    -0.75728000          -0.21083000          -2.12339000         
H                    -1.59921000          -1.61501000          -1.49233000         
19
Image 16 energy:-0.00916 
C                     2.88101000          -0.01865000          -0.05370000         
C                     1.94828000           0.91118000           0.05196000         
C                    -1.08042000          -0.15124000          -0.00086000         
C                    -0.85335000          -0.86559000           1.28597000         
C                    -1.94938000           1.05639000          -0.01766000         
C                    -0.81590000          -0.88643000          -1.26666000         
H                     3.25582000          -0.33896000          -1.02007000         
H                     3.31350000          -0.49463000           0.81885000         
H                     1.51860000           1.38663000          -0.81743000         
H                     1.57505000           1.23390000           1.01848000         
H                     0.08275000          -1.42903000           1.26785000         
H                    -1.65507000          -1.59021000           1.49325000         
H                    -0.82272000          -0.17672000           2.13161000         
H                    -1.77563000           1.68853000           0.85474000         
H                    -3.01664000           0.79420000          -0.00463000         
H                    -1.78715000           1.65823000          -0.91281000         
H                     0.15557000          -1.39855000          -1.22577000         
H                    -0.81562000          -0.21328000          -2.13267000         
H                    -1.57910000          -1.66391000          -1.46008000         
19
Image 17 energy:-0.00921 
C                     2.88945000          -0.01537000          -0.05823000         
C                     1.95251000           0.91196000           0.04778000         
C                    -1.07868000          -0.15188000           0.00618000         
C                    -0.85925000          -0.86818000           1.29109000         
C                    -1.95201000           1.05311000          -0.02142000         
C                    -0.81739000          -0.88309000          -1.26351000         
H                     3.25539000          -0.34602000          -1.02318000         
H                     3.32598000          -0.48454000           0.81582000         
H                     1.50797000           1.37726000          -0.82680000         
H                     1.58034000           1.23964000           1.00940000         
H                     0.08412000          -1.42260000           1.27828000         
H                    -1.65644000          -1.60347000           1.49190000         
H                    -0.84261000          -0.18058000           2.14135000         
H                    -1.83893000           1.65588000           0.88404000         
H                    -3.02031000           0.78520000          -0.09150000         
H                    -1.73475000           1.68659000          -0.88649000         
H                     0.10505000          -1.46053000          -1.20886000         
H                    -0.74608000          -0.20775000          -2.11421000         
H                    -1.62279000          -1.59327000          -1.49207000         
19
Image 18 energy:-0.00914 
C                     2.89080000          -0.01047000          -0.05203000         
C                     1.95015000           0.91132000           0.04568000         
C                    -1.07606000          -0.15468000           0.00284000         
C                    -0.85526000          -0.86659000           1.29208000         
C                    -1.95298000           1.04816000          -0.01884000         
C                    -0.82186000          -0.88334000          -1.26880000         
H                     3.26485000          -0.33901000          -1.01489000         
H                     3.32642000          -0.47562000           0.82472000         
H                     1.52008000           1.37457000          -0.82869000         
H                     1.57470000           1.23882000           1.00771000         
H                     0.04834000          -1.47485000           1.26753000         
H                    -1.68744000          -1.54382000           1.52250000         
H                    -0.77748000          -0.17237000           2.12760000         
H                    -1.81087000           1.66843000           0.87076000         
H                    -3.02129000           0.77652000          -0.04743000         
H                    -1.76533000           1.66633000          -0.90212000         
H                     0.06953000          -1.51735000          -1.19124000         
H                    -0.67947000          -0.18707000          -2.10673000         
H                    -1.66710000          -1.54333000          -1.54080000         
19
Image 19 energy:-0.00916 
C                     2.89417000          -0.01380000          -0.05134000         
C                     1.95133000           0.90882000           0.05218000         
C                    -1.08096000          -0.15345000          -0.00184000         
C                    -0.85723000          -0.86191000           1.28669000         
C                    -1.95770000           1.04862000          -0.01535000         
C                    -0.81588000          -0.88330000          -1.27208000         
H                     3.26756000          -0.34202000          -1.01415000         
H                     3.33097000          -0.47785000           0.82517000         