19
Image 1 energy:-0.03626 
C                    -0.55419000           0.43110000           1.45746000         
C                    -0.44653000          -0.01295000           0.02735000         
C                    -1.56996000          -1.03505000          -0.27812000         
C                    -0.59238000           1.19782000          -0.91884000         
C                     0.92428000          -0.72973000          -0.21312000         
C                     2.16713000           0.13766000           0.01766000         
H                    -0.72787000          -0.30133000           2.24691000         
H                    -0.33277000           1.45507000           1.75603000         
H                    -2.56265000          -0.58147000          -0.13987000         
H                    -1.49905000          -1.90719000           0.38950000         
H                    -1.49649000          -1.39550000          -1.31569000         
H                    -0.45776000           0.89468000          -1.96823000         
H                     0.14707000           1.97890000          -0.69259000         
H                    -1.59161000           1.64514000          -0.81840000         
H                     0.93187000          -1.12028000          -1.24495000         
H                     0.96738000          -1.60842000           0.45171000         
H                     3.08366000          -0.46157000          -0.09343000         
H                     2.16499000           0.56685000           1.02985000         
H                     2.22631000           0.96785000          -0.70086000         
19
Image 2 energy:-0.03607 
C                    -0.55975000           0.43486000           1.46041000         
C                    -0.44073000          -0.01088000           0.03062000         
C                    -1.55910000          -1.03592000          -0.28573000         
C                    -0.59135000           1.20463000          -0.91465000         
C                     0.92121000          -0.74071000          -0.19968000         
C                     2.16019000           0.13710000           0.00380000         
H                    -0.76486000          -0.29511000           2.24664000         
H                    -0.34434000           1.46071000           1.76027000         
H                    -2.55589000          -0.59530000          -0.14065000         
H                    -1.48020000          -1.91708000           0.36837000         
H                    -1.47860000          -1.38054000          -1.32554000         
H                    -0.44562000           0.90263000          -1.96153000         
H                     0.14401000           1.98796000          -0.68486000         
H                    -1.59125000           1.64833000          -0.82253000         
H                     0.92618000          -1.15701000          -1.22270000         
H                     0.96260000          -1.60058000           0.48930000         
H                     3.07817000          -0.45235000          -0.14601000         
H                     2.19036000           0.55535000           1.01914000         
H                     2.18743000           0.97307000          -0.70828000         
19
Image 3 energy:-0.03619 
C                    -0.55438000           0.42774000           1.45646000         
C                    -0.45201000          -0.01299000           0.02718000         
C                    -1.57240000          -1.03334000          -0.28004000         
C                    -0.59347000           1.19589000          -0.91937000         
C                     0.92570000          -0.72712000          -0.20672000         
C                     2.17484000           0.13808000           0.01552000         
H                    -0.73157000          -0.30227000           2.24502000         
H                    -0.33816000           1.45329000           1.75792000         
H                    -2.56384000          -0.58564000          -0.12996000         
H                    -1.48974000          -1.91721000           0.37453000         
H                    -1.50905000          -1.37708000          -1.32742000         
H                    -0.47858000           0.89064000          -1.97113000         
H                     0.15616000           1.97089000          -0.70522000         
H                    -1.58801000           1.65333000          -0.80186000         
H                     0.93061000          -1.12750000          -1.23581000         
H                     0.96968000          -1.60147000           0.46530000         
H                     3.09049000          -0.45640000          -0.09929000         
H                     2.17554000           0.57273000           1.02619000         
H                     2.23021000           0.96659000          -0.70584000         
19
Image 4 energy:-0.03624 
C                    -0.54188000           0.43187000           1.45246000         
C                    -0.44368000          -0.01377000           0.02002000         
C                    -1.57158000          -1.03511000          -0.27245000         
C                    -0.60372000           1.19796000          -0.92407000         
C                     0.92582000          -0.72898000          -0.22624000         
C                     2.16358000           0.13636000           0.03835000         
H                    -0.67786000          -0.30931000           2.24397000         
H                    -0.31677000           1.45882000           1.74986000         
H                    -2.56050000          -0.57549000          -0.12320000         
H                    -1.49841000          -1.90439000           0.39752000         
H                    -1.51169000          -1.39965000          -1.30838000         
H                    -0.49362000           0.89304000          -1.97553000         
H                     0.14436000           1.97485000          -0.71385000         
H                    -1.59802000           1.65147000          -0.80231000         
H                     0.94269000          -1.09974000          -1.26604000         
H                     0.96089000          -1.61875000           0.42379000         
H                     3.08313000          -0.46374000          -0.05382000         
H                     2.13679000           0.56131000           1.05396000         
H                     2.23980000           0.97061000          -0.67473000         
19
Image 5 energy:-0.03619 
C                    -0.53264000           0.43510000           1.44624000         
C                    -0.45088000          -0.01035000           0.01773000         
C                    -1.57104000          -1.03914000          -0.26512000         
C                    -0.61503000           1.19614000          -0.92904000         
C                     0.92547000          -0.71954000          -0.23769000         
C                     2.17106000           0.12852000           0.05574000         
H                    -0.69008000          -0.29410000           2.24281000         
H                    -0.27471000           1.45362000           1.73869000         
H                    -2.56061000          -0.59260000          -0.11095000         
H                    -1.48145000          -1.90979000           0.40326000         
H                    -1.51738000          -1.40109000          -1.30292000         
H                    -0.49564000           0.89093000          -1.97850000         
H                     0.12281000           1.98308000          -0.71973000         
H                    -1.61480000           1.63636000          -0.81565000         
H                     0.94339000          -1.05588000          -1.29154000         
H                     0.95678000          -1.63384000           0.37903000         
H                     3.08701000          -0.46661000          -0.05742000         
H                     2.14539000           0.51069000           1.08698000         
H                     2.24922000           0.98969000          -0.61999000         
19
Image 6 energy:-0.03622 
C                    -0.54973000           0.43858000           1.45355000         
C                    -0.44504000          -0.01338000           0.02530000         
C                    -1.56674000          -1.03932000          -0.27210000         
C                    -0.60405000           1.19512000          -0.92460000         
C                     0.92614000          -0.72404000          -0.22707000         
C                     2.16888000           0.13253000           0.03634000         
H                    -0.76778000          -0.28289000           2.24254000         
H                    -0.28314000           1.45414000           1.75164000         
H                    -2.56069000          -0.59413000          -0.10729000         
H                    -1.47630000          -1.92043000           0.38132000         
H                    -1.51156000          -1.38542000          -1.31653000         
H                    -0.49533000           0.88325000          -1.97552000         
H                     0.14681000           1.97110000          -0.71879000         
H                    -1.59818000           1.65340000          -0.80324000         
H                     0.93846000          -1.08378000          -1.26875000         
H                     0.96451000          -1.62031000           0.41288000         
H                     3.08487000          -0.45294000          -0.13747000         
H                     2.18827000           0.49211000           1.07544000         
H                     2.20988000           1.01091000          -0.62468000         
19
Image 7 energy:-0.03611 
C                    -0.54484000           0.42602000           1.45349000         
C                    -0.45161000          -0.01164000           0.02487000         
C                    -1.56932000          -1.03416000          -0.27954000         
C                    -0.59599000           1.19649000          -0.92136000         
C                     0.92332000          -0.72885000          -0.20683000         
C                     2.16680000           0.14170000           0.02197000         
H                    -0.75475000          -0.30048000           2.24080000         
H                    -0.29237000           1.44035000           1.75565000         
H                    -2.56182000          -0.59095000          -0.12826000         
H                    -1.48471000          -1.91569000           0.37443000         
H                    -1.50420000          -1.37858000          -1.32319000         
H                    -0.48102000           0.88642000          -1.96728000         
H                     0.15195000           1.97344000          -0.71498000         
H                    -1.58449000           1.65032000          -0.81113000         
H                     0.93057000          -1.12863000          -1.23956000         
H                     0.96646000          -1.60409000           0.46464000         
H                     3.08865000          -0.44139000          -0.13551000         
H                     2.18428000           0.53671000           1.04826000         
H                     2.19443000           0.99697000          -0.66628000         
19
Image 8 energy:-0.03617 
C                    -0.54836000           0.43309000           1.45374000         
C                    -0.44258000          -0.01467000           0.02017000         
C                    -1.57134000          -1.03641000          -0.27274000         
C                    -0.60848000           1.20019000          -0.92153000         
C                     0.93035000          -0.72945000          -0.22705000         
C                     2.17038000           0.13455000           0.03521000         
H                    -0.71176000          -0.30144000           2.24327000         
H                    -0.30494000           1.45512000           1.75791000         
H                    -2.56036000          -0.57190000          -0.14021000         
H                    -1.50616000          -1.90005000           0.40693000         
H                    -1.50230000          -1.41157000          -1.30551000         
H                    -0.49097000           0.90429000          -1.97754000         
H                     0.13300000           1.98178000          -0.70331000         
H                    -1.61146000           1.64573000          -0.79636000         
H                     0.94452000          -1.10112000          -1.26674000         
H                     0.96610000          -1.61886000           0.42380000         
H                     3.08868000          -0.45619000          -0.06299000         
H                     2.14861000           0.55635000           1.05194000         
H                     2.24085000           0.96926000          -0.67662000         
19
Image 9 energy:-0.03601 
C                    -0.53169000           0.43433000           1.44644000         
C                    -0.45256000          -0.01122000           0.01803000         
C                    -1.56573000          -1.04186000          -0.26778000         
C                    -0.61678000           1.19746000          -0.92588000         
C                     0.92172000          -0.71757000          -0.23803000         
C                     2.16904000           0.12976000           0.05486000         
H                    -0.67113000          -0.30627000           2.23997000         
H                    -0.26968000           1.45356000           1.73735000         
H                    -2.55514000          -0.58087000          -0.12317000         
H                    -1.49688000          -1.90669000           0.40942000         
H                    -1.50991000          -1.41241000          -1.30376000         
H                    -0.49492000           0.89155000          -1.97087000         
H                     0.12842000           1.97721000          -0.70984000         
H                    -1.60675000           1.64492000          -0.81832000         
H                     0.94249000          -1.05819000          -1.28687000         
H                     0.95065000          -1.62492000           0.38910000         
H                     3.08299000          -0.48751000          -0.03950000         
H                     2.13862000           0.54191000           1.07850000         
H                     2.26625000           0.97605000          -0.64548000         
19
Image 10 energy:-0.03615 
C                    -0.53317000           0.43908000           1.44608000         
C                    -0.44423000          -0.01184000           0.01966000         
C                    -1.57042000          -1.03863000          -0.26510000         
C                    -0.61700000           1.19445000          -0.93160000         
C                     0.92876000          -0.72120000          -0.23974000         
C                     2.16695000           0.12853000           0.05900000         
H                    -0.74246000          -0.28003000           2.23830000         
H                    -0.24588000           1.44891000           1.74142000         
H                    -2.56267000          -0.60007000          -0.09295000         
H                    -1.46911000          -1.91802000           0.38774000         
H                    -1.52340000          -1.38628000          -1.30753000         
H                    -0.52557000           0.88212000          -1.98657000         
H                     0.13147000           1.97579000          -0.74156000         
H                    -1.61521000           1.64675000          -0.79418000         
H                     0.94980000          -1.05536000          -1.29258000         
H                     0.96117000          -1.63590000           0.37418000         
H                     3.08592000          -0.44847000          -0.09772000         
H                     2.15974000           0.46759000           1.10167000         
H                     2.21911000           1.01743000          -0.58158000         
19
Image 11 energy:-0.03593 
C                    -0.55305000           0.44495000           1.45651000         
C                    -0.44766000          -0.01129000           0.02947000         
C                    -1.56059000          -1.04224000          -0.27144000         
C                    -0.60750000           1.19363000          -0.92691000         
C                     0.92586000          -0.72264000          -0.23359000         
C                     2.17145000           0.12788000           0.03970000         
H                    -0.79661000          -0.27117000           2.24565000         
H                    -0.25594000           1.45226000           1.75527000         
H                    -2.56225000          -0.60169000          -0.09318000         
H                    -1.45606000          -1.93003000           0.37443000         
H                    -1.51187000          -1.37634000          -1.32754000         
H                    -0.50122000           0.87197000          -1.96850000         
H                     0.14878000           1.96681000          -0.73922000         
H                    -1.59238000           1.65499000          -0.81352000         
H                     0.92835000          -1.06269000          -1.27910000         
H                     0.96533000          -1.62842000           0.39178000         
H                     3.09253000          -0.44332000          -0.16233000         
H                     2.19924000           0.45151000           1.09386000         
H                     2.19342000           1.03165000          -0.59366000         
19
Image 12 energy:-0.03577 
C                    -0.54712000           0.43416000           1.45280000         
C                    -0.45250000          -0.01220000           0.02596000         
C                    -1.56650000          -1.03949000          -0.27422000         
C                    -0.60212000           1.19605000          -0.92235000         
C                     0.92483000          -0.72372000          -0.22103000         
C                     2.16919000           0.13633000           0.03196000         
H                    -0.78923000          -0.28309000           2.24235000         
H                    -0.24834000           1.43889000           1.75124000         
H                    -2.55377000          -0.60343000          -0.15988000         
H                    -1.49817000          -1.90803000           0.39479000         
H                    -1.47593000          -1.40379000          -1.29741000         
H                    -0.50270000           0.88782000          -1.98238000         
H                     0.15942000           1.96291000          -0.71612000         
H                    -1.59691000           1.66262000          -0.79117000         
H                     0.93429000          -1.09141000          -1.26246000         
H                     0.96759000          -1.61601000           0.42725000         
H                     3.08643000          -0.45649000          -0.15406000         
H                     2.19854000           0.49998000           1.07570000         
H                     2.20248000           1.01576000          -0.63649000         
19
Image 13 energy:-0.03607 
C                    -0.54102000           0.42879000           1.44941000         
C                    -0.44315000          -0.01446000           0.01879000         
C                    -1.57486000          -1.03664000          -0.27208000         
C                    -0.60730000           1.19925000          -0.92121000         
C                     0.92880000          -0.72687000          -0.22293000         
C                     2.16753000           0.13832000           0.03589000         
H                    -0.73660000          -0.29707000           2.23732000         
H                    -0.26525000           1.43969000           1.75402000         
H                    -2.56647000          -0.57150000          -0.12797000         
H                    -1.50376000          -1.90213000           0.40417000         
H                    -1.51527000          -1.41082000          -1.30910000         
H                    -0.46132000           0.90375000          -1.96529000         
H                     0.11247000           1.99411000          -0.68962000         
H                    -1.60966000           1.62716000          -0.82401000         
H                     0.94552000          -1.10119000          -1.26561000         
H                     0.96307000          -1.61770000           0.42733000         
H                     3.08112000          -0.45380000          -0.07307000         
H                     2.15321000           0.55168000           1.05236000         
H                     2.23648000           0.97614000          -0.66675000         
19
Image 14 energy:-0.03590 
C                    -0.53667000           0.43000000           1.45057000         
C                    -0.45003000          -0.00837000           0.02152000         
C                    -1.56913000          -1.03592000          -0.27221000         
C                    -0.61607000           1.20010000          -0.92336000         
C                     0.93182000          -0.72864000          -0.23431000         
C                     2.16820000           0.13264000           0.04486000         
H                    -0.67562000          -0.31644000           2.23578000         
H                    -0.27621000           1.44455000           1.75707000         
H                    -2.55698000          -0.58297000          -0.13469000         
H                    -1.50078000          -1.90137000           0.40149000         
H                    -1.50423000          -1.40331000          -1.30289000         
H                    -0.50563000           0.90240000          -1.97388000         
H                     0.11924000           1.98912000          -0.71304000         
H                    -1.61452000           1.63885000          -0.79985000         
H                     0.95115000          -1.09786000          -1.28007000         
H                     0.95076000          -1.61599000           0.41179000         
H                     3.08695000          -0.47151000           0.01695000         
H                     2.10270000           0.59676000           1.04388000         
H                     2.27907000           0.93902000          -0.69932000         
19
Image 15 energy:-0.03516 
C                    -0.53411000           0.43117000           1.44636000         
C                    -0.43528000          -0.01790000           0.01224000         
C                    -1.57168000          -1.03608000          -0.27327000         
C                    -0.62019000           1.19970000          -0.92631000         
C                     0.92165000          -0.72085000          -0.22228000         
C                     2.17035000           0.13209000           0.04919000         
H                    -0.68655000          -0.31175000           2.23254000         
H                    -0.26653000           1.44462000           1.74721000         
H                    -2.55607000          -0.58928000          -0.10084000         
H                    -1.47733000          -1.91640000           0.37686000         
H                    -1.52989000          -1.37703000          -1.31436000         
H                    -0.54644000           0.89618000          -1.97944000         
H                     0.13441000           1.97380000          -0.74368000         
H                    -1.60690000           1.65437000          -0.77398000         
H                     0.89472000          -1.05659000          -1.25885000         
H                     0.99019000          -1.63252000           0.40982000         
H                     3.08393000          -0.47605000          -0.00624000         
H                     2.11743000           0.57124000           1.06167000         
H                     2.27372000           0.96065000          -0.67396000         
19
Image 16 energy:-0.03582 
C                    -0.53540000           0.43630000           1.44762000         
C                    -0.45319000          -0.00760000           0.02261000         
C                    -1.56652000          -1.04053000          -0.27159000         
C                    -0.61674000           1.19650000          -0.92746000         
C                     0.93174000          -0.72545000          -0.23528000         
C                     2.16669000           0.13247000           0.05349000         
H                    -0.71580000          -0.29267000           2.24097000         
H                    -0.25547000           1.45117000           1.74350000         
H                    -2.55974000          -0.59517000          -0.08005000         
H                    -1.46315000          -1.93284000           0.36354000         
H                    -1.53471000          -1.36826000          -1.32635000         
H                    -0.55975000           0.87600000          -1.97955000         
H                     0.15965000           1.95311000          -0.76267000         
H                    -1.59392000           1.67733000          -0.76637000         
H                     0.96753000          -1.08892000          -1.28787000         
H                     0.95847000          -1.62536000           0.40119000         
H                     3.08428000          -0.47550000          -0.05861000         
H                     2.13652000           0.52623000           1.08281000         
H                     2.25036000           0.99388000          -0.63489000         
19
Image 17 energy:-0.03571 
C                    -0.54256000           0.44452000           1.45125000         
C                    -0.44295000          -0.01579000           0.02503000         
C                    -1.56268000          -1.04776000          -0.26932000         
C                    -0.61160000           1.19411000          -0.92805000         
C                     0.91924000          -0.71179000          -0.23912000         
C                     2.17091000           0.12525000           0.05314000         
H                    -0.74629000          -0.27361000           2.24698000         
H                    -0.24171000           1.45250000           1.74038000         
H                    -2.55848000          -0.61466000          -0.09178000         
H                    -1.46363000          -1.94081000           0.36509000         
H                    -1.51780000          -1.37931000          -1.31898000         
H                    -0.55366000           0.86805000          -1.97807000         
H                     0.17906000           1.94391000          -0.76798000         
H                    -1.57930000           1.69017000          -0.77179000         
H                     0.93105000          -1.04122000          -1.29679000         
H                     0.92027000          -1.61871000           0.37680000         
H                     3.09076000          -0.44556000          -0.10737000         
H                     2.15783000           0.48134000           1.09393000         
H                     2.21116000           1.01438000          -0.59685000         
19
Image 18 energy:-0.03571 
C                    -0.55012000           0.44926000           1.44896000         
C                    -0.45611000          -0.00129000           0.02554000         
C                    -1.55735000          -1.04762000          -0.26685000         
C                    -0.62280000           1.20111000          -0.92751000         
C                     0.93584000          -0.72481000          -0.23976000         
C                     2.17599000           0.11841000           0.05185000         
H                    -0.79840000          -0.26184000           2.23804000         
H                    -0.23303000           1.44918000           1.74876000         
H                    -2.56458000          -0.63123000          -0.10408000         
H                    -1.44247000          -1.92775000           0.38661000         
H                    -1.49141000          -1.39390000          -1.31244000         
H                    -0.54377000           0.87526000          -1.97831000         
H                     0.15182000           1.96353000          -0.74978000         
H                    -1.60325000           1.68348000          -0.78863000         
H                     0.92603000          -1.04429000          -1.28852000         
H                     0.98232000          -1.64947000           0.36678000         
H                     3.08841000          -0.46315000          -0.14997000         
H                     2.20053000           0.43557000           1.10587000         
H                     2.21548000           1.02339000          -0.57262000         
19
Image 19 energy:-0.03508 
C                    -0.55800000           0.45081000           1.44901000         
C                    -0.44234000          -0.00610000           0.02024000         
C                    -1.55427000          -1.04851000          -0.26496000         
C                    -0.63446000           1.20199000          -0.92563000         
C                     0.91786000          -0.70454000          -0.23727000         
C                     2.19411000           0.10642000           0.05012000         
H                    -0.82560000          -0.25802000           2.23217000         
H                    -0.23208000           1.44650000           1.74934000         