19
Image 1 energy:-0.00348 
C                     2.50253000           0.40784000          -0.67681000         
C                     1.92365000          -0.49477000           0.37741000         
C                     0.93252000          -1.37465000           0.17381000         
C                    -1.72035000           0.18455000           0.50092000         
C                    -1.04822000           1.51527000           0.40271000         
C                    -2.48774000          -0.39157000          -0.64471000         
H                     3.58960000           0.25452000          -0.78888000         
H                     2.36079000           1.46846000          -0.41019000         
H                     2.03157000           0.25054000          -1.65024000         
H                     2.34475000          -0.40378000           1.37863000         
H                     0.54364000          -2.00164000           0.97486000         
H                     0.48207000          -1.51128000          -0.81316000         
H                    -1.87017000          -0.24995000           1.49436000         
H                    -0.26493000           1.63046000           1.17256000         
H                    -1.76148000           2.35738000           0.53506000         
H                    -0.57411000           1.65657000          -0.58566000         
H                    -1.93058000          -0.29288000          -1.59137000         
H                    -3.45487000           0.12437000          -0.80684000         
H                    -2.71535000          -1.45705000          -0.49655000         
19
Image 2 energy:-0.00346 
C                     2.51279000           0.41704000          -0.65818000         
C                     1.93231000          -0.50619000           0.37809000         
C                     0.93741000          -1.38096000           0.15764000         
C                    -1.72058000           0.18952000           0.50069000         
C                    -1.05509000           1.51979000           0.38522000         
C                    -2.50217000          -0.39391000          -0.63119000         
H                     3.59646000           0.25704000          -0.77689000         
H                     2.37946000           1.47790000          -0.37872000         
H                     2.03167000           0.25784000          -1.64362000         
H                     2.35619000          -0.41836000           1.39196000         
H                     0.54211000          -2.01608000           0.95348000         
H                     0.47745000          -1.48955000          -0.82786000         
H                    -1.84593000          -0.23581000           1.49549000         
H                    -0.24343000           1.63420000           1.11653000         
H                    -1.76383000           2.35843000           0.54939000         
H                    -0.62164000           1.66575000          -0.61867000         
H                    -1.95001000          -0.31802000          -1.58596000         
H                    -3.47009000           0.12452000          -0.78946000         
H                    -2.73465000          -1.45573000          -0.46063000         
19
Image 3 energy:-0.00352 
C                     2.51984000           0.42045000          -0.64530000         
C                     1.94491000          -0.52017000           0.37731000         
C                     0.93562000          -1.37296000           0.15328000         
C                    -1.71744000           0.19165000           0.49697000         
C                    -1.06166000           1.52665000           0.36773000         
C                    -2.51525000          -0.40084000          -0.62006000         
H                     3.60195000           0.25428000          -0.77514000         
H                     2.39634000           1.46819000          -0.32695000         
H                     2.03890000           0.30956000          -1.62369000         
H                     2.38816000          -0.48021000           1.37657000         
H                     0.55122000          -2.03057000           0.93303000         
H                     0.46737000          -1.45475000          -0.83070000         
H                    -1.83544000          -0.23314000           1.49794000         
H                    -0.22846000           1.63439000           1.08142000         
H                    -1.76497000           2.36305000           0.56185000         
H                    -0.66107000           1.68186000          -0.64667000         
H                    -1.98541000          -0.30908000          -1.58666000         
H                    -3.49678000           0.11149000          -0.75988000         
H                    -2.73414000          -1.46708000          -0.44822000         
19
Image 4 energy:-0.00346 
C                     2.52747000           0.42603000          -0.63295000         
C                     1.96501000          -0.53558000           0.37803000         
C                     0.94448000          -1.37777000           0.14902000         
C                    -1.72410000           0.19570000           0.49214000         
C                    -1.07240000           1.53260000           0.35478000         
C                    -2.53220000          -0.39918000          -0.61195000         
H                     3.61282000           0.26197000          -0.78656000         
H                     2.40900000           1.47463000          -0.29410000         
H                     2.01930000           0.32228000          -1.61122000         
H                     2.43150000          -0.51289000           1.37527000         
H                     0.56548000          -2.04793000           0.92389000         
H                     0.45690000          -1.42982000          -0.82807000         
H                    -1.82646000          -0.22017000           1.49340000         
H                    -0.23287000           1.64831000           1.05471000         
H                    -1.77579000           2.36890000           0.55239000         
H                    -0.68139000           1.68653000          -0.66652000         
H                    -2.02781000          -0.28523000          -1.58711000         
H                    -3.52113000           0.08775000          -0.71333000         
H                    -2.71860000          -1.47073000          -0.44941000         
19
Image 5 energy:-0.00348 
C                     2.52808000           0.42926000          -0.63049000         
C                     1.98665000          -0.55019000           0.37331000         
C                     0.94509000          -1.36971000           0.15871000         
C                    -1.73041000           0.19952000           0.49455000         
C                    -1.08063000           1.53492000           0.34831000         
C                    -2.53655000          -0.40077000          -0.61353000         
H                     3.59936000           0.24567000          -0.82862000         
H                     2.44513000           1.46343000          -0.25169000         
H                     1.98424000           0.37272000          -1.58645000         
H                     2.47698000          -0.57404000           1.34856000         
H                     0.58083000          -2.05605000           0.92071000         
H                     0.41968000          -1.38987000          -0.80254000         
H                    -1.83143000          -0.22432000           1.49699000         
H                    -0.25194000           1.66009000           1.06274000         
H                    -1.79004000           2.37144000           0.52248000         
H                    -0.67750000           1.67384000          -0.66671000         
H                    -2.03275000          -0.27376000          -1.59129000         
H                    -3.54028000           0.07917000          -0.72037000         
H                    -2.71852000          -1.47928000          -0.46185000         
19
Image 6 energy:-0.00346 
C                     2.52774000           0.43344000          -0.61958000         
C                     1.99411000          -0.56574000           0.37208000         
C                     0.93853000          -1.36248000           0.15807000         
C                    -1.72564000           0.20060000           0.48701000         
C                    -1.08457000           1.54106000           0.33833000         
C                    -2.54045000          -0.40631000          -0.60766000         
H                     3.58448000           0.22884000          -0.87078000         
H                     2.49539000           1.46035000          -0.21193000         
H                     1.94689000           0.42001000          -1.55309000         
H                     2.52089000          -0.60754000           1.33862000         
H                     0.58575000          -2.06565000           0.91994000         
H                     0.40867000          -1.35369000          -0.78972000         
H                    -1.81267000          -0.21616000           1.48995000         
H                    -0.25853000           1.67450000           1.05197000         
H                    -1.79952000           2.37443000           0.50643000         
H                    -0.67624000           1.67857000          -0.67832000         
H                    -2.07661000          -0.23371000          -1.59595000         
H                    -3.55798000           0.02923000          -0.66188000         
H                    -2.66691000          -1.49077000          -0.47240000         
19
Image 7 energy:-0.00345 
C                     2.52187000           0.43399000          -0.62235000         
C                     2.00391000          -0.57269000           0.36718000         
C                     0.93520000          -1.36179000           0.17395000         
C                    -1.72788000           0.20595000           0.48484000         
C                    -1.08878000           1.54627000           0.34015000         
C                    -2.53159000          -0.40896000          -0.61488000         
H                     3.55515000           0.20224000          -0.92567000         
H                     2.54359000           1.44413000          -0.18682000         
H                     1.89663000           0.46863000          -1.52493000         
H                     2.54785000          -0.64571000           1.31174000         
H                     0.59284000          -2.07223000           0.92426000         
H                     0.35975000          -1.32892000          -0.75629000         
H                    -1.81465000          -0.21992000           1.48678000         
H                    -0.27553000           1.68554000           1.06716000         
H                    -1.80532000           2.37939000           0.49253000         
H                    -0.66747000           1.68229000          -0.66898000         
H                    -2.10036000          -0.18644000          -1.60432000         
H                    -3.57822000          -0.03384000          -0.63968000         
H                    -2.59638000          -1.50299000          -0.51059000         
19
Image 8 energy:-0.00327 
C                     2.50863000           0.43025000          -0.63753000         
C                     2.00265000          -0.56878000           0.36864000         
C                     0.93185000          -1.35183000           0.19259000         
C                    -1.72867000           0.19990000           0.48420000         
C                    -1.08137000           1.53633000           0.35308000         
C                    -2.52468000          -0.40299000          -0.63009000         
H                     3.53123000           0.17786000          -0.96981000         
H                     2.56127000           1.44389000          -0.19946000         
H                     1.86162000           0.47921000          -1.52600000         
H                     2.57721000          -0.64685000           1.30068000         
H                     0.60624000          -2.06146000           0.96065000         
H                     0.35538000          -1.31292000          -0.72396000         
H                    -1.82031000          -0.23221000           1.47981000         
H                    -0.28816000           1.68059000           1.09744000         
H                    -1.80511000           2.36820000           0.48195000         
H                    -0.63414000           1.67043000          -0.64483000         
H                    -2.07074000          -0.17257000          -1.61567000         
H                    -3.56829000          -0.02106000          -0.65981000         
H                    -2.59699000          -1.50208000          -0.53939000         
19
Image 9 energy:-0.00326 
C                     2.51229000           0.42922000          -0.64601000         
C                     1.99949000          -0.55191000           0.36932000         
C                     0.92842000          -1.35098000           0.20043000         
C                    -1.72741000           0.18655000           0.48075000         
C                    -1.07188000           1.52640000           0.36088000         
C                    -2.52952000          -0.39566000          -0.63481000         
H                     3.54684000           0.18485000          -0.95153000         
H                     2.53601000           1.45149000          -0.22709000         
H                     1.87945000           0.44488000          -1.54970000         
H                     2.55646000          -0.61174000           1.31262000         
H                     0.59974000          -2.05075000           0.96415000         
H                     0.33554000          -1.34022000          -0.73029000         
H                    -1.83126000          -0.24837000           1.47537000         
H                    -0.27454000           1.65452000           1.11585000         
H                    -1.79168000           2.36025000           0.50043000         
H                    -0.62130000           1.66774000          -0.63851000         
H                    -2.05752000          -0.21105000          -1.61312000         
H                    -3.54835000           0.04228000          -0.69530000         
H                    -2.65576000          -1.48192000          -0.51757000         
19
Image 10 energy:-0.00342 
C                     2.51498000           0.42148000          -0.65171000         
C                     1.98525000          -0.54126000           0.37825000         
C                     0.93695000          -1.35086000           0.18736000         
C                    -1.72849000           0.18713000           0.48925000         
C                    -1.07027000           1.51785000           0.36581000         
C                    -2.52893000          -0.39105000          -0.63511000         
H                     3.56604000           0.19394000          -0.91260000         
H                     2.50124000           1.45810000          -0.27096000         
H                     1.91618000           0.39058000          -1.57649000         
H                     2.51323000          -0.56255000           1.33998000         
H                     0.58661000          -2.02970000           0.97059000         
H                     0.39847000          -1.36040000          -0.75501000         
H                    -1.84032000          -0.25648000           1.48453000         
H                    -0.26384000           1.64380000           1.09566000         
H                    -1.78053000           2.35943000           0.51536000         
H                    -0.63540000           1.65378000          -0.63674000         
H                    -2.03995000          -0.21304000          -1.60883000         
H                    -3.54200000           0.06533000          -0.71588000         
H                    -2.68348000          -1.47678000          -0.52331000         
19
Image 11 energy:-0.00348 
C                     2.52752000           0.42250000          -0.64864000         
C                     1.97205000          -0.52382000           0.37786000         
C                     0.93779000          -1.36064000           0.17648000         
C                    -1.73118000           0.18333000           0.48824000         
C                    -1.05974000           1.51347000           0.36543000         
C                    -2.53906000          -0.39014000          -0.62790000         
H                     3.59019000           0.20954000          -0.86230000         
H                     2.47494000           1.46714000          -0.29713000         
H                     1.97057000           0.35435000          -1.59456000         
H                     2.46531000          -0.51230000           1.35759000         
H                     0.57576000          -2.02965000           0.95652000         
H                     0.41368000          -1.41218000          -0.78569000         
H                    -1.84284000          -0.23897000           1.48302000         
H                    -0.25109000           1.62620000           1.11098000         
H                    -1.76726000           2.35362000           0.52064000         
H                    -0.62368000           1.65579000          -0.63852000         
H                    -2.03554000          -0.24033000          -1.60237000         
H                    -3.53654000           0.08460000          -0.71456000         
H                    -2.71199000          -1.46858000          -0.49901000         
19
Image 12 energy:-0.00355 
C                     2.53893000           0.42252000          -0.63935000         
C                     1.95910000          -0.52114000           0.38073000         
C                     0.93941000          -1.36038000           0.15247000         
C                    -1.72855000           0.18605000           0.49604000         
C                    -1.05768000           1.51208000           0.35792000         
C                    -2.54277000          -0.39456000          -0.61613000         
H                     3.61563000           0.23534000          -0.79921000         
H                     2.44814000           1.46986000          -0.31124000         
H                     2.02432000           0.32322000          -1.60636000         
H                     2.41361000          -0.49033000           1.37629000         
H                     0.54922000          -2.02078000           0.92980000         
H                     0.46170000          -1.42447000          -0.82512000         
H                    -1.85432000          -0.23381000           1.50082000         
H                    -0.23696000           1.63201000           1.07626000         
H                    -1.75911000           2.35867000           0.51880000         
H                    -0.63775000           1.64036000          -0.65438000         
H                    -2.04328000          -0.27566000          -1.58959000         
H                    -3.53150000           0.10271000          -0.72009000         
H                    -2.74102000          -1.46646000          -0.46383000         
19
Image 13 energy:-0.00351 
C                     2.55279000           0.42623000          -0.62179000         
C                     1.94704000          -0.51645000           0.38048000         
C                     0.93769000          -1.36586000           0.12860000         
C                    -1.72589000           0.18892000           0.49856000         
C                    -1.05431000           1.51363000           0.34147000         
C                    -2.55225000          -0.40188000          -0.59698000         
H                     3.63060000           0.24029000          -0.75673000         
H                     2.45292000           1.47653000          -0.30150000         
H                     2.06591000           0.32525000          -1.60141000         
H                     2.37327000          -0.48087000           1.38806000         
H                     0.53137000          -2.02702000           0.89497000         
H                     0.48552000          -1.43730000          -0.86215000         
H                    -1.83228000          -0.21015000           1.50575000         
H                    -0.22246000           1.62733000           1.05907000         
H                    -1.74992000           2.36283000           0.51178000         
H                    -0.64580000           1.64244000          -0.67573000         
H                    -2.04669000          -0.28815000          -1.57872000         
H                    -3.54256000           0.09327000          -0.69980000         
H                    -2.75090000          -1.47401000          -0.43559000         
19
Image 14 energy:-0.00351 
C                     2.56184000           0.43005000          -0.60460000         
C                     1.94076000          -0.52262000           0.38239000         
C                     0.93546000          -1.36621000           0.10363000         
C                    -1.71935000           0.19464000           0.50051000         
C                    -1.05415000           1.52052000           0.32545000         
C                    -2.55718000          -0.41139000          -0.57968000         
H                     3.64390000           0.25295000          -0.71148000         
H                     2.44704000           1.47493000          -0.27580000         
H                     2.10108000           0.33527000          -1.59815000         
H                     2.34406000          -0.49392000           1.40205000         
H                     0.51450000          -2.03248000           0.85860000         
H                     0.50192000          -1.42786000          -0.89792000         
H                    -1.82293000          -0.20492000           1.51545000         
H                    -0.21571000           1.64955000           1.02291000         
H                    -1.75130000           2.36545000           0.49525000         
H                    -0.65976000           1.63998000          -0.69671000         
H                    -2.08578000          -0.31202000          -1.56758000         
H                    -3.55046000           0.07670000          -0.66887000         
H                    -2.74506000          -1.47805000          -0.39823000         
19
Image 15 energy:-0.00343 
C                     2.57034000           0.43561000          -0.58727000         
C                     1.94931000          -0.53516000           0.37857000         
C                     0.93085000          -1.36351000           0.09050000         
C                    -1.71507000           0.19675000           0.49974000         
C                    -1.06206000           1.52588000           0.30659000         
C                    -2.56683000          -0.41658000          -0.56232000         
H                     3.66201000           0.26335000          -0.68023000         
H                     2.44128000           1.47745000          -0.23788000         
H                     2.11756000           0.35415000          -1.59021000         
H                     2.36335000          -0.53748000           1.39332000         
H                     0.50860000          -2.04267000           0.83346000         
H                     0.49329000          -1.39871000          -0.91045000         
H                    -1.79094000          -0.18769000           1.51488000         
H                    -0.22343000           1.66432000           1.01035000         
H                    -1.76495000           2.37077000           0.46826000         
H                    -0.66853000           1.63950000          -0.71810000         
H                    -2.08827000          -0.31854000          -1.56100000         
H                    -3.56289000           0.07313000          -0.64392000         
H                    -2.75556000          -1.48805000          -0.37640000         
19
Image 16 energy:-0.00354 
C                     2.57232000           0.43593000          -0.57892000         
C                     1.96012000          -0.54685000           0.38069000         
C                     0.92813000          -1.35209000           0.09203000         
C                    -1.70967000           0.19724000           0.49400000         
C                    -1.06890000           1.53058000           0.29859000         
C                    -2.57124000          -0.42011000          -0.56092000         
H                     3.64400000           0.22881000          -0.73764000         
H                     2.50080000           1.46874000          -0.19113000         
H                     2.07096000           0.40239000          -1.55800000         
H                     2.40057000          -0.58012000           1.38419000         
H                     0.51673000          -2.04876000           0.82275000         
H                     0.45797000          -1.35211000          -0.89480000         
H                    -1.77204000          -0.20541000           1.50920000         
H                    -0.22298000           1.67991000           0.98332000         
H                    -1.77757000           2.36897000           0.46653000         
H                    -0.69335000           1.64064000          -0.73268000         
H                    -2.13389000          -0.31219000          -1.56509000         
H                    -3.57840000           0.04979000          -0.61036000         
H                    -2.73153000          -1.49154000          -0.37027000         
19
Image 17 energy:-0.00347 
C                     2.57374000           0.44319000          -0.57002000         
C                     1.98189000          -0.56374000           0.37709000         
C                     0.93196000          -1.35195000           0.09878000         
C                    -1.71500000           0.19865000           0.48988000         
C                    -1.07528000           1.53343000           0.28527000         
C                    -2.58465000          -0.41908000          -0.55554000         
H                     3.64164000           0.24143000          -0.77206000         
H                     2.52213000           1.46221000          -0.14988000         
H                     2.03372000           0.44214000          -1.53134000         
H                     2.43989000          -0.63096000           1.36412000         
H                     0.53344000          -2.06297000           0.82404000         
H                     0.43422000          -1.31588000          -0.87009000         
H                    -1.75611000          -0.19983000           1.50390000         
H                    -0.22631000           1.68470000           0.96873000         
H                    -1.78537000           2.37251000           0.45417000         
H                    -0.70138000           1.64656000          -0.74929000         
H                    -2.15032000          -0.28007000          -1.56624000         
H                    -3.60050000           0.03972000          -0.58594000         
H                    -2.72643000          -1.50034000          -0.38391000         
19
Image 18 energy:-0.00346 
C                     2.57214000           0.44351000          -0.56862000         
C                     1.98768000          -0.57093000           0.37591000         
C                     0.92405000          -1.34486000           0.11196000         
C                    -1.70873000           0.19931000           0.48100000         
C                    -1.08007000           1.53793000           0.28168000         
C                    -2.58403000          -0.42198000          -0.55786000         
H                     3.62327000           0.20819000          -0.80389000         
H                     2.56835000           1.45178000          -0.12590000         
H                     2.01225000           0.48930000          -1.51059000         
H                     2.48822000          -0.65778000           1.35206000         
H                     0.53863000          -2.06535000           0.83365000         
H                     0.40984000          -1.29675000          -0.85102000         
H                    -1.74112000          -0.21024000           1.49317000         
H                    -0.19846000           1.66667000           0.92668000         
H                    -1.77435000           2.37172000           0.51042000         
H                    -0.75852000           1.67676000          -0.76251000         
H                    -2.19851000          -0.24132000          -1.57175000         
H                    -3.61463000          -0.01500000          -0.54475000         
H                    -2.67698000          -1.50847000          -0.42284000         
19
Image 19 energy:-0.00330 
C                     2.57166000           0.43796000          -0.57269000         
C                     1.97371000          -0.55512000           0.38647000         
C                     0.92639000          -1.34710000           0.11163000         
C                    -1.70595000           0.19818000           0.47586000         
C                    -1.07163000           1.53603000           0.28480000         
C                    -2.58387000          -0.42321000          -0.56172000         
H                     3.61416000           0.16855000          -0.83007000         
H                     2.60682000           1.45150000          -0.12808000         