22
Image 1 energy:-0.00811 
C                     0.56432000          -2.42049000          -0.17626000         
C                     1.04926000          -1.07756000          -0.65030000         
C                     1.09658000           0.08631000           0.03124000         
C                     0.64565000           0.27507000           1.45929000         
C                     1.60647000           1.34821000          -0.62783000         
C                    -2.10990000           1.53370000          -0.31404000         
C                    -2.61460000           0.22689000           0.19107000         
H                     0.12110000          -2.38994000           0.82582000         
H                    -0.19354000          -2.82557000          -0.86540000         
H                     1.42187000          -1.06668000          -1.68382000         
H                    -0.20826000           0.97026000           1.48278000         
H                     1.44362000           0.73211000           2.06317000         
H                     0.33892000          -0.65533000           1.94941000         
H                     2.41816000           1.80064000          -0.03453000         
H                     0.80654000           2.10321000          -0.69390000         
H                     1.98838000           1.15628000          -1.64562000         
H                    -1.49210000           1.56807000          -1.20087000         
H                    -2.57631000           2.49373000           0.02891000         
H                    -3.51170000          -0.11155000          -0.35099000         
H                    -2.90114000           0.26846000           1.24034000         
H                    -1.87389000          -0.55687000           0.07370000         
H                     1.38713000          -3.15488000          -0.15523000         
22
Image 2 energy:-0.00894 
C                     0.55865000          -2.41841000          -0.17239000         
C                     1.04149000          -1.07483000          -0.64861000         
C                     1.09801000           0.08646000           0.03530000         
C                     0.66456000           0.27198000           1.46911000         
C                     1.59313000           1.34954000          -0.63078000         
C                    -2.11251000           1.53581000          -0.31725000         
C                    -2.61050000           0.22193000           0.17644000         
H                     0.09988000          -2.38378000           0.82312000         
H                    -0.18720000          -2.83348000          -0.86906000         
H                     1.39155000          -1.06077000          -1.68483000         
H                    -0.18754000           0.97578000           1.50761000         
H                     1.47397000           0.71772000           2.07045000         
H                     0.35525000          -0.66199000           1.95549000         
H                     2.41914000           1.81155000          -0.04929000         
H                     0.78621000           2.10288000          -0.67560000         
H                     1.95387000           1.16465000          -1.65640000         
H                    -1.48229000           1.58839000          -1.21819000         
H                    -2.51486000           2.46531000           0.07001000         
H                    -3.51118000          -0.11087000          -0.38704000         
H                    -2.90133000           0.26743000           1.23700000         
H                    -1.85327000          -0.56744000           0.05979000         
H                     1.38558000          -3.14769000          -0.13305000         
22
Image 3 energy:-0.00838 
C                     0.55013000          -2.41548000          -0.16844000         
C                     1.02906000          -1.07179000          -0.64855000         
C                     1.09216000           0.09046000           0.03620000         
C                     0.67086000           0.27076000           1.47503000         
C                     1.58483000           1.35610000          -0.62805000         
C                    -2.09554000           1.52909000          -0.32219000         
C                    -2.59559000           0.21346000           0.16771000         
H                     0.09098000          -2.38117000           0.82661000         
H                    -0.19103000          -2.83566000          -0.86708000         
H                     1.38721000          -1.06013000          -1.68478000         
H                    -0.17159000           0.98025000           1.52856000         
H                     1.49002000           0.70548000           2.07283000         
H                     0.35384000          -0.66306000           1.95343000         
H                     2.42230000           1.78979000          -0.08498000         
H                     0.78640000           2.11415000          -0.65083000         
H                     1.91772000           1.17787000          -1.66022000         
H                    -1.53445000           1.59619000          -1.23222000         
H                    -2.49867000           2.46678000           0.08214000         
H                    -3.51603000          -0.10310000          -0.38051000         
H                    -2.88418000           0.25920000           1.25229000         
H                    -1.84212000          -0.57930000           0.02280000         
H                     1.38049000          -3.14092000          -0.12684000         
22
Image 4 energy:-0.00865 
C                     0.54846000          -2.41280000          -0.16505000         
C                     1.02248000          -1.06805000          -0.64669000         
C                     1.09224000           0.08994000           0.03918000         
C                     0.68158000           0.26895000           1.48044000         
C                     1.58048000           1.35431000          -0.62913000         
C                    -2.10329000           1.53154000          -0.32532000         
C                    -2.59490000           0.21050000           0.15732000         
H                     0.09212000          -2.37939000           0.83213000         
H                    -0.19728000          -2.83425000          -0.85942000         
H                     1.37085000          -1.05420000          -1.68709000         
H                    -0.15438000           0.99089000           1.53968000         
H                     1.51190000           0.69158000           2.07349000         
H                     0.35574000          -0.66168000           1.95941000         
H                     2.42606000           1.80618000          -0.06766000         
H                     0.78562000           2.11445000          -0.64294000         
H                     1.90047000           1.17784000          -1.65977000         
H                    -1.51252000           1.58149000          -1.26766000         
H                    -2.46643000           2.46837000           0.11104000         
H                    -3.54168000          -0.07860000          -0.33338000         
H                    -2.79569000           0.21360000           1.23343000         
H                    -1.85751000          -0.59301000          -0.04203000         
H                     1.37919000          -3.13840000          -0.12649000         
22
Image 5 energy:-0.00886 
C                     0.54274000          -2.41087000          -0.16227000         
C                     1.01257000          -1.06518000          -0.64635000         
C                     1.08539000           0.09363000           0.04125000         
C                     0.68904000           0.27024000           1.48630000         
C                     1.57581000           1.35840000          -0.62584000         
C                    -2.09273000           1.52421000          -0.33278000         
C                    -2.58287000           0.20432000           0.15128000         
H                     0.09806000          -2.37756000           0.83901000         
H                    -0.20840000          -2.83446000          -0.84643000         
H                     1.34441000          -1.04806000          -1.69090000         
H                    -0.12755000           1.00279000           1.55707000         
H                     1.52854000           0.67109000           2.07102000         
H                     0.35729000          -0.65885000           1.96593000         
H                     2.43227000           1.79287000          -0.07146000         
H                     0.77700000           2.12819000          -0.63458000         
H                     1.89578000           1.17288000          -1.66870000         
H                    -1.59119000           1.61044000          -1.28719000         
H                    -2.41696000           2.45028000           0.14236000         
H                    -3.56290000          -0.07552000          -0.34015000         
H                    -2.76143000           0.19723000           1.24462000         
H                    -1.87820000          -0.59732000          -0.09628000         
H                     1.37529000          -3.13327000          -0.13171000         
22
Image 6 energy:-0.00886 
C                     0.53867000          -2.40812000          -0.15794000         
C                     1.00306000          -1.06195000          -0.64431000         
C                     1.08641000           0.09550000           0.04295000         
C                     0.69979000           0.26992000           1.49089000         
C                     1.57573000           1.36087000          -0.62368000         
C                    -2.09186000           1.52139000          -0.33582000         
C                    -2.58560000           0.19574000           0.13685000         
H                     0.09675000          -2.37634000           0.84758000         
H                    -0.21484000          -2.83270000          -0.84472000         
H                     1.32619000          -1.04417000          -1.69092000         
H                    -0.12271000           1.01097000           1.56882000         
H                     1.54896000           0.67008000           2.08144000         
H                     0.36073000          -0.65958000           1.96392000         
H                     2.44872000           1.76911000          -0.10511000         
H                     0.79601000           2.13586000          -0.59617000         
H                     1.85660000           1.19421000          -1.67180000         
H                    -1.60207000           1.60550000          -1.31205000         
H                    -2.39820000           2.45092000           0.16689000         
H                    -3.57531000          -0.03577000          -0.27780000         
H                    -2.70198000           0.17758000           1.24263000         
H                    -1.88744000          -0.61712000          -0.15633000         
H                     1.37516000          -3.13125000          -0.13215000         
22
Image 7 energy:-0.00917 
C                     0.53370000          -2.40442000          -0.15441000         
C                     1.00036000          -1.05935000          -0.64316000         
C                     1.08399000           0.09783000           0.04423000         
C                     0.70501000           0.27168000           1.49670000         
C                     1.57404000           1.36074000          -0.62419000         
C                    -2.09068000           1.51667000          -0.34045000         
C                    -2.58117000           0.19265000           0.12970000         
H                     0.11575000          -2.37523000           0.85957000         
H                    -0.23988000          -2.81831000          -0.82290000         
H                     1.31828000          -1.04157000          -1.69212000         
H                    -0.08816000           1.02533000           1.59001000         
H                     1.56125000           0.63883000           2.07922000         
H                     0.35204000          -0.65244000           1.96747000         
H                     2.45600000           1.77817000          -0.09364000         
H                     0.79380000           2.14068000          -0.59011000         
H                     1.84629000           1.19443000          -1.67429000         
H                    -1.65067000           1.62362000          -1.33356000         
H                    -2.33369000           2.43016000           0.20072000         
H                    -3.61486000          -0.03956000          -0.25335000         
H                    -2.63065000           0.13956000           1.22829000         
H                    -1.92957000          -0.62205000          -0.22380000         
H                     1.36204000          -3.13341000          -0.15108000         
22
Image 8 energy:-0.00924 
C                     0.52636000          -2.39978000          -0.14999000         
C                     0.98778000          -1.05440000          -0.64114000         
C                     1.08203000           0.10094000           0.04820000         
C                     0.72099000           0.27059000           1.50269000         
C                     1.56867000           1.36626000          -0.62129000         
C                    -2.07927000           1.50924000          -0.34470000         
C                    -2.58228000           0.18130000           0.11397000         
H                     0.12334000          -2.37127000           0.86971000         
H                    -0.25690000          -2.81022000          -0.80680000         
H                     1.29436000          -1.03445000          -1.69357000         
H                    -0.07302000           1.03470000           1.60360000         
H                     1.59227000           0.63639000           2.07978000         
H                     0.36437000          -0.65295000           1.97346000         
H                     2.46288000           1.76139000          -0.11576000         
H                     0.79539000           2.15361000          -0.57038000         
H                     1.82472000           1.19585000          -1.68125000         
H                    -1.67603000           1.63218000          -1.34782000         
H                    -2.29921000           2.41837000           0.22458000         
H                    -3.61976000           0.00459000          -0.21459000         
H                    -2.59095000           0.11153000           1.21549000         
H                    -1.96487000          -0.64206000          -0.27771000         
H                     1.35295000          -3.12995000          -0.16024000         
22
Image 9 energy:-0.00929 
C                     0.51893000          -2.39461000          -0.14748000         
C                     0.97691000          -1.04903000          -0.63967000         
C                     1.07826000           0.10562000           0.05082000         
C                     0.73748000           0.27465000           1.51181000         
C                     1.56576000           1.36795000          -0.62175000         
C                    -2.06728000           1.49623000          -0.34665000         
C                    -2.58795000           0.17515000           0.10144000         
H                     0.11812000          -2.36430000           0.87607000         
H                    -0.26956000          -2.80347000          -0.80445000         
H                     1.26796000          -1.02636000          -1.69526000         
H                    -0.02708000           1.05798000           1.63327000         
H                     1.62237000           0.60294000           2.08108000         
H                     0.36356000          -0.64347000           1.98081000         
H                     2.47615000           1.75761000          -0.13073000         
H                     0.80581000           2.16279000          -0.54612000         
H                     1.78936000           1.20991000          -1.68328000         
H                    -1.69022000           1.62582000          -1.36267000         
H                    -2.23543000           2.39656000           0.24454000         
H                    -3.64683000           0.00828000          -0.21529000         
H                    -2.57279000           0.07698000           1.19871000         
H                    -1.99409000          -0.64806000          -0.32540000         
H                     1.34800000          -3.12705000          -0.16214000         
22
Image 10 energy:-0.00929 
C                     0.50458000          -2.38753000          -0.14418000         
C                     0.96640000          -1.04222000          -0.63715000         
C                     1.07785000           0.11020000           0.05337000         
C                     0.75286000           0.27575000           1.51930000         
C                     1.56156000           1.37495000          -0.62069000         
C                    -2.05245000           1.48185000          -0.35119000         
C                    -2.58910000           0.16235000           0.08863000         
H                     0.13153000          -2.36276000           0.88895000         
H                    -0.30468000          -2.78285000          -0.78276000         
H                     1.25539000          -1.01879000          -1.69464000         
H                     0.00052000           1.07132000           1.65432000         
H                     1.65061000           0.58918000           2.08310000         
H                     0.36504000          -0.63646000           1.98443000         
H                     2.48092000           1.75415000          -0.14126000         
H                     0.80550000           2.17604000          -0.53618000         
H                     1.77517000           1.21334000          -1.68754000         
H                    -1.70884000           1.62640000          -1.37402000         
H                    -2.18812000           2.37535000           0.26329000         
H                    -3.65280000           0.03797000          -0.19668000         
H                    -2.54313000           0.04831000           1.18394000         
H                    -2.03031000          -0.67064000          -0.36475000         
H                     1.32348000          -3.12693000          -0.18595000         
22
Image 11 energy:-0.00922 
C                     0.51711000          -2.38760000          -0.13507000         
C                     0.95592000          -1.03975000          -0.63734000         
C                     1.07352000           0.11200000           0.05267000         
C                     0.75704000           0.27623000           1.52014000         
C                     1.56142000           1.37252000          -0.62102000         
C                    -2.04751000           1.48234000          -0.34564000         
C                    -2.59941000           0.16171000           0.07329000         
H                     0.19036000          -2.36894000           0.91562000         
H                    -0.31993000          -2.78239000          -0.74072000         
H                     1.21820000          -1.01478000          -1.69930000         
H                     0.02621000           1.08446000           1.66358000         
H                     1.66319000           0.56461000           2.07451000         
H                     0.35377000          -0.63586000           1.98280000         
H                     2.49005000           1.73888000          -0.14569000         
H                     0.81700000           2.17995000          -0.52088000         
H                     1.75825000           1.22017000          -1.68946000         
H                    -1.72014000           1.64455000          -1.37240000         
H                    -2.13610000           2.35562000           0.29972000         
H                    -3.67706000           0.06017000          -0.18486000         
H                    -2.52603000           0.01849000           1.16239000         
H                    -2.07071000          -0.66778000          -0.42233000         
H                     1.33633000          -3.12853000          -0.21613000         
22
Image 12 energy:-0.00914 
C                     0.51885000          -2.38703000          -0.13401000         
C                     0.96281000          -1.04076000          -0.63674000         
C                     1.07273000           0.11334000           0.05357000         
C                     0.74604000           0.27653000           1.51646000         
C                     1.56026000           1.37690000          -0.62064000         
C                    -2.03685000           1.47326000          -0.34775000         
C                    -2.60420000           0.16344000           0.07588000         
H                     0.24412000          -2.37967000           0.92422000         
H                    -0.34830000          -2.75800000          -0.69799000         
H                     1.23735000          -1.01728000          -1.69800000         
H                     0.03111000           1.10587000           1.64649000         
H                     1.64846000           0.54091000           2.09621000         
H                     0.30461000          -0.61901000           1.96857000         
H                     2.49600000           1.73951000          -0.16167000         
H                     0.81878000           2.18603000          -0.51200000         
H                     1.74543000           1.22310000          -1.69369000         
H                    -1.73478000           1.64313000          -1.38143000         
H                    -2.06670000           2.33903000           0.31573000         
H                    -3.69310000           0.09676000          -0.13157000         
H                    -2.48560000          -0.00550000           1.15488000         
H                    -2.12655000          -0.67145000          -0.45511000         
H                     1.31401000          -3.13395000          -0.26462000         
22
Image 13 energy:-0.00900 
C                     0.51875000          -2.38724000          -0.14233000         
C                     0.97247000          -1.04044000          -0.63318000         
C                     1.08243000           0.11177000           0.05445000         
C                     0.72545000           0.28302000           1.51244000         
C                     1.57178000           1.37100000          -0.62083000         
C                    -2.04741000           1.47739000          -0.35431000         
C                    -2.59966000           0.16048000           0.09194000         
H                     0.26690000          -2.39696000           0.92822000         
H                    -0.37166000          -2.72896000          -0.69977000         
H                     1.24578000          -1.01413000          -1.69283000         
H                     0.00851000           1.10301000           1.63626000         
H                     1.61775000           0.55191000           2.09349000         
H                     0.28493000          -0.61921000           1.95757000         
H                     2.50308000           1.74167000          -0.14790000         
H                     0.82629000           2.18004000          -0.52429000         
H                     1.76031000           1.21409000          -1.69083000         
H                    -1.74845000           1.63101000          -1.39057000         
H                    -2.07435000           2.34787000           0.30031000         
H                    -3.69164000           0.10343000          -0.08990000         
H                    -2.45418000           0.00136000           1.17225000         
H                    -2.13898000          -0.67866000          -0.45097000         
H                     1.30081000          -3.15045000          -0.30791000         
22
Image 14 energy:-0.00906 
C                     0.51087000          -2.38610000          -0.14973000         
C                     0.98550000          -1.04494000          -0.63898000         
C                     1.07746000           0.11152000           0.05331000         
C                     0.72561000           0.28110000           1.51042000         
C                     1.57732000           1.37224000          -0.61477000         
C                    -2.05534000           1.46970000          -0.36161000         
C                    -2.59520000           0.17018000           0.10713000         
H                     0.21967000          -2.37560000           0.90890000         
H                    -0.35857000          -2.73756000          -0.73202000         
H                     1.28455000          -1.02274000          -1.69237000         
H                    -0.01934000           1.09174000           1.61404000         
H                     1.61014000           0.58308000           2.10482000         
H                     0.30624000          -0.62083000           1.96829000         
H                     2.49944000           1.73707000          -0.13601000         
H                     0.82822000           2.17734000          -0.52272000         
H                     1.78440000           1.21709000          -1.68363000         
H                    -1.75648000           1.61111000          -1.40043000         
H                    -2.12839000           2.36857000           0.26593000         
H                    -3.69335000           0.08092000          -0.07901000         
H                    -2.45441000           0.02717000           1.18987000         
H                    -2.11274000          -0.67332000          -0.41202000         
H                     1.29714000          -3.15108000          -0.27169000         
22
Image 15 energy:-0.00899 
C                     0.50937000          -2.38626000          -0.15212000         
C                     0.98482000          -1.04514000          -0.64043000         
C                     1.08951000           0.10532000           0.05120000         
C                     0.72311000           0.27836000           1.50791000         
C                     1.58459000           1.37163000          -0.61064000         
C                    -2.07983000           1.48463000          -0.37103000         
C                    -2.58835000           0.16744000           0.11957000         
H                     0.19820000          -2.36849000           0.90290000         
H                    -0.35075000          -2.74596000          -0.74875000         
H                     1.29656000          -1.02579000          -1.69264000         
H                    -0.02757000           1.07326000           1.61964000         
H                     1.59917000           0.58628000           2.09490000         
H                     0.32216000          -0.63408000           1.96759000         
H                     2.50018000           1.75096000          -0.12288000         
H                     0.83129000           2.17192000          -0.52781000         
H                     1.81079000           1.21632000          -1.67681000         
H                    -1.75526000           1.60120000          -1.40911000         
H                    -2.16689000           2.37281000           0.23589000         
H                    -3.67506000           0.05884000          -0.09821000         
H                    -2.47279000           0.05967000           1.21312000         
H                    -2.07092000          -0.68041000          -0.36387000         
H                     1.30309000          -3.15051000          -0.25636000         
22
Image 16 energy:-0.00894 
C                     0.50677000          -2.38545000          -0.15610000         
C                     0.98191000          -1.04301000          -0.64173000         
C                     1.08184000           0.11121000           0.05146000         
C                     0.72380000           0.27580000           1.50846000         
C                     1.59152000           1.36907000          -0.61319000         
C                    -2.07134000           1.47499000          -0.36956000         
C                    -2.58812000           0.17073000           0.12585000         
H                     0.13250000          -2.35958000           0.87926000         
H                    -0.30725000          -2.77110000          -0.79903000         
H                     1.28046000          -1.01986000          -1.69413000         
H                    -0.04076000           1.05959000           1.62574000         
H                     1.60597000           0.60909000           2.08569000         
H                     0.33814000          -0.63811000           1.96719000         
H                     2.50062000           1.74990000          -0.10371000         
H                     0.83425000           2.17357000          -0.55043000         
H                     1.82232000           1.20901000          -1.66839000         
H                    -1.75058000           1.59230000          -1.39532000         
H                    -2.22591000           2.40281000           0.20953000         
H                    -3.66494000           0.03455000          -0.11565000         
H                    -2.50301000           0.07744000           1.22525000         
H                    -2.03930000          -0.66813000          -0.33610000         