24
Image 1 energy:-0.02226 
C                     2.19228000           1.27781000          -0.09242000         
C                     1.93070000          -0.00153000           0.71514000         
C                     2.19741000          -1.27555000          -0.09738000         
C                    -1.79955000           1.29994000           0.58591000         
C                    -1.49741000          -0.00005000          -0.09505000         
C                    -1.35313000          -0.01525000          -1.58711000         
C                    -1.80995000          -1.28568000           0.60986000         
H                     1.99640000           2.18041000           0.50659000         
H                     1.54566000           1.31689000          -0.98241000         
H                     3.23740000           1.32467000          -0.43840000         
H                     0.88140000           0.00093000           1.05064000         
H                     2.55368000          -0.00405000           1.62325000         
H                     3.24518000          -1.32534000          -0.43686000         
H                     1.55689000          -1.30457000          -0.99276000         
H                    -2.86894000           1.58751000           0.48191000         
H                    -1.59151000           1.25179000           1.66697000         
H                    -0.80924000           0.87020000          -1.95245000         
H                    -2.33832000          -0.01373000          -2.10274000         
H                    -0.82024000          -0.91432000          -1.93607000         
H                    -1.22278000          -2.12398000           0.20092000         
H                    -2.87987000          -1.57083000           0.50655000         
H                    -1.60588000          -1.21894000           1.69057000         
H                     1.99329000          -2.18119000           0.49224000         
H                    -1.21037000           2.12818000           0.15822000         
24
Image 2 energy:-0.02226 
C                     2.19602000           1.27937000          -0.09143000         
C                     1.93396000           0.00153000           0.71363000         
C                     2.19466000          -1.27613000          -0.09451000         
C                    -1.79960000           1.29723000           0.58677000         
C                    -1.49771000          -0.00175000          -0.09733000         
C                    -1.35369000          -0.01472000          -1.58850000         
C                    -1.81263000          -1.28569000           0.60837000         
H                     1.99894000           2.18055000           0.50672000         
H                     1.54754000           1.31908000          -0.98029000         
H                     3.24020000           1.32530000          -0.43893000         
H                     0.88552000          -0.00237000           1.05437000         
H                     2.56597000           0.00192000           1.62003000         
H                     3.23990000          -1.32259000          -0.43548000         
H                     1.55080000          -1.31431000          -0.98629000         
H                    -2.87491000           1.56883000           0.51084000         
H                    -1.56292000           1.25512000           1.66204000         
H                    -0.80291000           0.86643000          -1.95220000         
H                    -2.33851000          -0.00234000          -2.10174000         
H                    -0.83136000          -0.91788000          -1.94060000         
H                    -1.24046000          -2.12863000           0.19026000         
H                    -2.88650000          -1.55811000           0.51882000         
H                    -1.59529000          -1.22359000           1.68684000         
H                     1.99272000          -2.17781000           0.50262000         
H                    -1.23391000           2.13232000           0.14244000         
24
Image 3 energy:-0.02225 
C                     2.19118000           1.27833000          -0.09195000         
C                     1.93665000          -0.00101000           0.71708000         
C                     2.19686000          -1.27597000          -0.09457000         
C                    -1.80083000           1.29727000           0.58677000         
C                    -1.50048000          -0.00084000          -0.09979000         
C                    -1.35144000          -0.01425000          -1.59046000         
C                    -1.81252000          -1.28398000           0.60934000         
H                     1.99364000           2.18017000           0.50772000         
H                     1.54330000           1.31470000          -0.98064000         
H                     3.23516000           1.32707000          -0.43892000         
H                     0.88985000          -0.00133000           1.05682000         
H                     2.56541000          -0.00215000           1.62067000         
H                     3.24294000          -1.32283000          -0.44062000         
H                     1.55015000          -1.30839000          -0.98549000         
H                    -2.88107000           1.55621000           0.54259000         
H                    -1.53240000           1.26299000           1.65536000         
H                    -0.78983000           0.86213000          -1.95123000         
H                    -2.33354000           0.00786000          -2.10988000         
H                    -0.83442000          -0.92194000          -1.93967000         
H                    -1.25103000          -2.13077000           0.18170000         
H                    -2.88984000          -1.55054000           0.53854000         
H                    -1.57604000          -1.22251000           1.68433000         
H                     1.99910000          -2.18145000           0.50160000         
H                    -1.25748000           2.13615000           0.12337000         
24
Image 4 energy:-0.02221 
C                     2.19256000           1.27877000          -0.09092000         
C                     1.93827000           0.00062000           0.71715000         
C                     2.19493000          -1.27641000          -0.09374000         
C                    -1.80231000           1.29566000           0.58661000         
C                    -1.50155000          -0.00148000          -0.10111000         
C                    -1.34888000          -0.01393000          -1.59137000         
C                    -1.81371000          -1.28376000           0.60918000         
H                     1.99174000           2.18110000           0.50536000         
H                     1.54342000           1.31119000          -0.97993000         
H                     3.23747000           1.33241000          -0.44044000         
H                     0.89119000          -0.00198000           1.06508000         
H                     2.57823000           0.00137000           1.62033000         
H                     3.23813000          -1.32957000          -0.43797000         
H                     1.55015000          -1.30834000          -0.98311000         
H                    -2.88499000           1.54070000           0.56541000         
H                    -1.51124000           1.26936000           1.64884000         
H                    -0.78484000           0.86109000          -1.95079000         
H                    -2.32995000           0.01290000          -2.11263000         
H                    -0.83626000          -0.92317000          -1.94151000         
H                    -1.27563000          -2.13562000           0.16479000         
H                    -2.89517000          -1.53484000           0.56648000         
H                    -1.54916000          -1.23031000           1.67744000         
H                     1.99120000          -2.17784000           0.49710000         
H                    -1.27913000           2.13799000           0.10945000         
24
Image 5 energy:-0.02216 
C                     2.18919000           1.27879000          -0.09126000         
C                     1.94397000           0.00049000           0.71956000         
C                     2.19230000          -1.27681000          -0.09357000         
C                    -1.80359000           1.29527000           0.58623000         
C                    -1.49985000          -0.00167000          -0.10250000         
C                    -1.34594000          -0.01360000          -1.59205000         
C                    -1.81513000          -1.28302000           0.60848000         
H                     1.98559000           2.17824000           0.50678000         
H                     1.53762000           1.31255000          -0.97755000         
H                     3.23135000           1.33285000          -0.44132000         
H                     0.90001000          -0.00270000           1.06717000         
H                     2.57736000           0.00114000           1.61778000         
H                     3.23551000          -1.32217000          -0.45105000         
H                     1.53346000          -1.31370000          -0.97785000         
H                    -2.88911000           1.52906000           0.58141000         
H                    -1.49676000           1.27552000           1.64434000         
H                    -0.78011000           0.86080000          -1.95038000         
H                    -2.32559000           0.01444000          -2.11417000         
H                    -0.83374000          -0.92314000          -1.94124000         
H                    -1.29896000          -2.13924000           0.14926000         
H                    -2.89994000          -1.51839000           0.58987000         
H                    -1.52568000          -1.23920000           1.67044000         
H                     2.00109000          -2.18089000           0.51114000         
H                    -1.29634000           2.14150000           0.10015000         
24
Image 6 energy:-0.02216 
C                     2.18509000           1.27819000          -0.09349000         
C                     1.94856000          -0.00028000           0.72244000         
C                     2.19002000          -1.27592000          -0.09294000         
C                    -1.80629000           1.29454000           0.58572000         
C                    -1.49827000          -0.00115000          -0.10245000         
C                    -1.34064000          -0.01325000          -1.59176000         
C                    -1.81708000          -1.28273000           0.60748000         
H                     1.99548000           2.18129000           0.50963000         
H                     1.51884000           1.31046000          -0.96929000         
H                     3.22247000           1.32885000          -0.46029000         
H                     0.90804000           0.00016000           1.08865000         
H                     2.60497000          -0.00064000           1.61415000         
H                     3.22675000          -1.32677000          -0.45894000         
H                     1.52708000          -1.30627000          -0.96911000         
H                    -2.89414000           1.52029000           0.58404000         
H                    -1.49610000           1.27764000           1.64360000         
H                    -0.77579000           0.86232000          -1.94902000         
H                    -2.31927000           0.01172000          -2.11741000         
H                    -0.82445000          -0.92169000          -1.93909000         
H                    -1.31849000          -2.14326000           0.13698000         
H                    -2.90549000          -1.50364000           0.60467000         
H                    -1.51212000          -1.24765000           1.66579000         
H                     1.99862000          -2.17889000           0.50269000         
H                    -1.30597000           2.14333000           0.09624000         
24
Image 7 energy:-0.02213 
C                     2.18662000           1.27905000          -0.09120000         
C                     1.95707000           0.00191000           0.72477000         
C                     2.18546000          -1.27602000          -0.09528000         
C                    -1.80905000           1.29369000           0.58425000         
C                    -1.49699000          -0.00226000          -0.10139000         
C                    -1.33833000          -0.01388000          -1.59100000         
C                    -1.82100000          -1.28294000           0.60681000         
H                     2.00329000           2.18167000           0.50420000         
H                     1.50868000           1.30714000          -0.95904000         
H                     3.22245000           1.33360000          -0.47830000         
H                     0.92155000          -0.00137000           1.09952000         
H                     2.61233000           0.00309000           1.60787000         
H                     3.21648000          -1.32479000          -0.47826000         
H                     1.50563000          -1.31113000          -0.96097000         
H                    -2.89696000           1.51905000           0.57181000         
H                    -1.50904000           1.27580000           1.64493000         
H                    -0.77728000           0.86435000          -1.94826000         
H                    -2.31744000           0.00669000          -2.11740000         
H                    -0.81779000          -0.91985000          -1.93878000         
H                    -1.32756000          -2.14591000           0.13451000         
H                    -2.91104000          -1.49679000           0.60402000         
H                    -1.51567000          -1.25002000           1.66528000         
H                     2.00798000          -2.17894000           0.50966000         
H                    -1.30375000           2.14284000           0.09902000         
24
Image 8 energy:-0.02211 
C                     2.18291000           1.27869000          -0.09569000         
C                     1.96082000           0.00080000           0.72511000         
C                     2.18524000          -1.27647000          -0.09414000         
C                    -1.81104000           1.29472000           0.58383000         
C                    -1.49711000          -0.00182000          -0.10030000         
C                    -1.33535000          -0.01343000          -1.58943000         
C                    -1.82232000          -1.28345000           0.60572000         
H                     2.01512000           2.18058000           0.51728000         
H                     1.49738000           1.32106000          -0.95310000         
H                     3.20468000           1.32483000          -0.47759000         
H                     0.92905000          -0.00030000           1.11280000         
H                     2.63405000           0.00165000           1.60211000         
H                     3.21413000          -1.32303000          -0.49032000         
H                     1.49761000          -1.31333000          -0.95245000         
H                    -2.89716000           1.53067000           0.55258000         
H                    -1.52914000           1.26999000           1.64974000         
H                    -0.77985000           0.86759000          -1.94671000         
H                    -2.31351000           0.00120000          -2.11497000         
H                    -0.81025000          -0.91656000          -1.93655000         
H                    -1.31996000          -2.14501000           0.13934000         
H                    -2.91197000          -1.50304000           0.59166000         
H                    -1.52761000          -1.24753000           1.66754000         
H                     2.01626000          -2.17906000           0.51007000         
H                    -1.28951000           2.14157000           0.11082000         
24
Image 9 energy:-0.02214 
C                     2.18190000           1.27881000          -0.09424000         
C                     1.96382000           0.00015000           0.72431000         
C                     2.18502000          -1.27621000          -0.09551000         
C                    -1.81330000           1.29586000           0.58356000         
C                    -1.49729000          -0.00128000          -0.09826000         
C                    -1.33336000          -0.01349000          -1.58747000         
C                    -1.82359000          -1.28427000           0.60523000         
H                     2.02137000           2.17923000           0.51385000         
H                     1.48473000           1.32198000          -0.94512000         
H                     3.21024000           1.31996000          -0.51009000         
H                     0.93400000           0.00236000           1.11722000         
H                     2.63794000          -0.00123000           1.59708000         
H                     3.20862000          -1.31896000          -0.49219000         
H                     1.49061000          -1.31645000          -0.94971000         
H                    -2.89593000           1.54335000           0.52901000         
H                    -1.55443000           1.26649000           1.65500000         
H                    -0.77965000           0.86954000          -1.94361000         
H                    -2.31054000          -0.00439000          -2.11655000         
H                    -0.80200000          -0.91443000          -1.93176000         
H                    -1.30679000          -2.14221000           0.14721000         
H                    -2.91096000          -1.51335000           0.57257000         
H                    -1.54637000          -1.24577000           1.67167000         
H                     2.02175000          -2.17919000           0.51412000         
H                    -1.27356000           2.13838000           0.12330000         
24
Image 10 energy:-0.02217 
C                     2.18729000           1.27901000          -0.09672000         
C                     1.96777000           0.00226000           0.72581000         
C                     2.18223000          -1.27615000          -0.09701000         
C                    -1.81615000           1.29612000           0.58325000         
C                    -1.49953000          -0.00194000          -0.09620000         
C                    -1.33277000          -0.01374000          -1.58490000         
C                    -1.82609000          -1.28593000           0.60431000         
H                     2.03368000           2.18327000           0.51169000         
H                     1.48269000           1.31867000          -0.94592000         
H                     3.20586000           1.32065000          -0.50059000         
H                     0.94171000           0.00041000           1.12436000         
H                     2.64595000           0.00228000           1.59444000         
H                     3.20662000          -1.31962000          -0.50561000         
H                     1.48817000          -1.31626000          -0.94623000         
H                    -2.89372000           1.55578000           0.50589000         
H                    -1.58040000           1.26213000           1.65916000         
H                    -0.78234000           0.87147000          -1.94188000         
H                    -2.31018000          -0.00930000          -2.11580000         
H                    -0.79767000          -0.91312000          -1.92842000         
H                    -1.29171000          -2.13853000           0.15676000         
H                    -2.90982000          -1.52681000           0.55160000         
H                    -1.56857000          -1.24240000           1.67544000         
H                     2.02256000          -2.17801000           0.51045000         
H                    -1.25865000           2.13371000           0.13579000         
24
Image 11 energy:-0.02212 
C                     2.18316000           1.27849000          -0.09678000         
C                     1.96575000           0.00020000           0.72234000         
C                     2.18809000          -1.27677000          -0.09785000         
C                    -1.81693000           1.29800000           0.58314000         
C                    -1.50099000          -0.00088000          -0.09449000         
C                    -1.33061000          -0.01361000          -1.58290000         
C                    -1.82709000          -1.28584000           0.60487000         
H                     2.03164000           2.18153000           0.51281000         
H                     1.49387000           1.32325000          -0.94158000         
H                     3.20611000           1.31930000          -0.51032000         
H                     0.93976000           0.00173000           1.12591000         
H                     2.64874000          -0.00031000           1.59169000         
H                     3.20899000          -1.32019000          -0.50172000         
H                     1.48197000          -1.31700000          -0.94825000         
H                    -2.88957000           1.57037000           0.48673000         
H                    -1.60089000           1.25628000           1.66283000         
H                    -0.78538000           0.87316000          -1.94086000         
H                    -2.30758000          -0.01261000          -2.11095000         
H                    -0.79406000          -0.91159000          -1.92626000         
H                    -1.27373000          -2.13370000           0.17104000         
H                    -2.90655000          -1.54094000           0.53147000         
H                    -1.59110000          -1.23570000           1.68032000         
H                     2.02983000          -2.17947000           0.51151000         
H                    -1.24154000           2.13069000           0.14936000         
24
Image 12 energy:-0.02213 
C                     2.18860000           1.27907000          -0.09859000         
C                     1.96450000           0.00083000           0.71971000         
C                     2.18595000          -1.27662000          -0.09861000         
C                    -1.81829000           1.29804000           0.58436000         
C                    -1.50173000          -0.00123000          -0.09261000         
C                    -1.32901000          -0.01359000          -1.58121000         
C                    -1.82783000          -1.28679000           0.60585000         
H                     2.03013000           2.17750000           0.51449000         
H                     1.47541000           1.32797000          -0.94909000         
H                     3.20994000           1.31818000          -0.50500000         
H                     0.93611000           0.00065000           1.11326000         
H                     2.63719000           0.00110000           1.59315000         
H                     3.21324000          -1.31965000          -0.49911000         
H                     1.50005000          -1.31826000          -0.95316000         
H                    -2.88638000           1.58227000           0.46977000         
H                    -1.62089000           1.25206000           1.66710000         
H                    -0.78322000           0.87466000          -1.93633000         
H                    -2.30421000          -0.01504000          -2.11372000         
H                    -0.78732000          -0.90938000          -1.92279000         
H                    -1.25765000          -2.13058000           0.18698000         
H                    -2.90218000          -1.55424000           0.51099000         
H                    -1.61459000          -1.23044000           1.68515000         
H                     2.02258000          -2.18006000           0.51167000         
H                    -1.22744000           2.12678000           0.16345000         
24
Image 13 energy:-0.02220 
C                     2.18816000           1.27820000          -0.10081000         
C                     1.96152000           0.00081000           0.71850000         
C                     2.18994000          -1.27671000          -0.10171000         
C                    -1.82037000           1.29886000           0.58527000         
C                    -1.50210000          -0.00109000          -0.08967000         
C                    -1.32657000          -0.01336000          -1.57791000         
C                    -1.82982000          -1.28700000           0.60663000         
H                     2.02756000           2.18321000           0.50888000         
H                     1.50540000           1.31955000          -0.95772000         
H                     3.21671000           1.31858000          -0.49780000         
H                     0.92860000          -0.00118000           1.10239000         
H                     2.62911000           0.00083000           1.59766000         
H                     3.21874000          -1.32058000          -0.49103000         
H                     1.50305000          -1.31725000          -0.96297000         
H                    -2.88397000           1.59104000           0.45183000         
H                    -1.64274000           1.24984000           1.67081000         
H                    -0.78097000           0.87578000          -1.93241000         
H                    -2.30116000          -0.01763000          -2.11388000         
H                    -0.78218000          -0.90876000          -1.91742000         
H                    -1.24356000          -2.12671000           0.20169000         
H                    -2.89899000          -1.56550000           0.49083000         
H                    -1.63800000          -1.22482000           1.68942000         
H                     2.01776000          -2.17746000           0.50393000         
H                    -1.21749000           2.12464000           0.17592000         
24
Image 14 energy:-0.02220 
C                     2.19343000           1.27756000          -0.10111000         
C                     1.95395000          -0.00025000           0.71251000         
C                     2.19506000          -1.27640000          -0.10276000         
C                    -1.82306000           1.29995000           0.58582000         
C                    -1.50295000          -0.00018000          -0.08681000         
C                    -1.32349000          -0.01370000          -1.57419000         
C                    -1.83194000          -1.28693000           0.60752000         
H                     2.01959000           2.17823000           0.50062000         
H                     1.50940000           1.31852000          -0.96593000         
H                     3.22354000           1.32214000          -0.48546000         
H                     0.91637000          -0.00021000           1.08876000         
H                     2.61362000          -0.00034000           1.59910000         
H                     3.22945000          -1.31978000          -0.48368000         
H                     1.51952000          -1.31323000          -0.97158000         
H                    -2.88369000           1.59507000           0.44130000         
H                    -1.65706000           1.24805000           1.67319000         
H                    -0.78068000           0.87557000          -1.92967000         
H                    -2.29753000          -0.01903000          -2.10822000         
H                    -0.78014000          -0.90935000          -1.91285000         
H                    -1.23550000          -2.12395000           0.21024000         
H                    -2.89828000          -1.57175000           0.47915000         
H                    -1.65284000          -1.22223000           1.69230000         
H                     2.02193000          -2.18213000           0.50111000         
H                    -1.21273000           2.12391000           0.18363000         
24
Image 15 energy:-0.02222 
C                     2.19377000           1.27835000          -0.10422000         
C                     1.94729000           0.00036000           0.70853000         
C                     2.19634000          -1.27729000          -0.10432000         
C                    -1.82376000           1.29951000           0.58819000         
C                    -1.50285000          -0.00058000          -0.08515000         
C                    -1.31859000          -0.01334000          -1.57177000         
C                    -1.83269000          -1.28719000           0.60931000         
H                     2.01746000           2.18184000           0.50495000         
H                     1.52756000           1.32285000          -0.97894000         
H                     3.23173000           1.31837000          -0.47512000         
H                     0.90688000          -0.00064000           1.06327000         
H                     2.59009000           0.00075000           1.60333000         
H                     3.23457000          -1.32314000          -0.46479000         
H                     1.53607000          -1.31777000          -0.98354000         
H                    -2.88323000           1.60006000           0.43875000         
H                    -1.66364000           1.24645000           1.67624000         