10
Image 1 energy:-0.00700 
C                    -1.24592000          -0.27986000           0.04310000         
C                    -0.10769000           0.28405000          -0.32915000         
C                     1.25604000          -0.22700000           0.00725000         
H                    -2.20408000           0.14134000          -0.23415000         
H                    -1.26023000          -1.18538000           0.64105000         
H                    -0.08420000           3.56631000           3.56882000         
H                    -0.14361000           1.19079000          -0.92797000         
H                     1.82551000          -0.44280000          -0.90036000         
H                     1.82390000           0.52053000           0.56707000         
H                     1.20438000          -1.13773000           0.60516000         
10
Image 2 energy:-0.00700 
C                    -1.24548000          -0.27848000           0.04319000         
C                    -0.10759000           0.28622000          -0.32594000         
C                     1.25609000          -0.22623000           0.00775000         
H                    -2.20364000           0.14325000          -0.23335000         
H                    -1.26015000          -1.18408000           0.64178000         
H                    -0.09205000           3.50764000           3.51908000         
H                    -0.14330000           1.19324000          -0.92469000         
H                     1.82250000          -0.44614000          -0.90081000         
H                     1.82682000           0.52237000           0.56334000         
H                     1.20458000          -1.13484000           0.60902000         
10
Image 3 energy:-0.00700 
C                    -1.24638000          -0.28009000           0.04222000         
C                    -0.10736000           0.28447000          -0.32978000         
C                     1.25650000          -0.22624000           0.00795000         
H                    -2.20425000           0.14198000          -0.23450000         
H                    -1.26070000          -1.18814000           0.63475000         
H                    -0.08913000           3.55166000           3.57771000         
H                    -0.14325000           1.19433000          -0.92259000         
H                     1.82711000          -0.43974000          -0.89974000         
H                     1.82368000           0.52013000           0.57014000         
H                     1.20440000          -1.13850000           0.60352000         
10
Image 4 energy:-0.00700 
C                    -1.24553000          -0.28277000           0.03792000         
C                    -0.10790000           0.28442000          -0.32778000         
C                     1.25581000          -0.22710000           0.00676000         
H                    -2.20388000           0.13850000          -0.23875000         
H                    -1.25965000          -1.19025000           0.63302000         
H                    -0.08312000           3.60299000           3.63028000         
H                    -0.14392000           1.19291000          -0.92425000         
H                     1.82804000          -0.43389000          -0.90097000         
H                     1.82031000           0.51701000           0.57443000         
H                     1.20460000          -1.14287000           0.59712000         
10
Image 5 energy:-0.00701 
C                    -1.24664000          -0.28422000           0.03754000         
C                    -0.10775000           0.28205000          -0.33252000         
C                     1.25634000          -0.22706000           0.00706000         
H                    -2.20461000           0.13748000          -0.23940000         
H                    -1.26088000          -1.19289000           0.62951000         
H                    -0.07813000           3.65024000           3.68791000         
H                    -0.14392000           1.19303000          -0.92362000         
H                     1.83267000          -0.42975000          -0.89943000         
H                     1.81763000           0.51605000           0.57935000         
H                     1.20471000          -1.14485000           0.59391000         
10
Image 6 energy:-0.00701 
C                    -1.24576000          -0.28718000           0.03302000         
C                    -0.10837000           0.28223000          -0.32987000         
C                     1.25554000          -0.22790000           0.00584000         
H                    -2.20431000           0.13328000          -0.24413000         
H                    -1.25932000          -1.19582000           0.62565000         
H                    -0.07002000           3.70382000           3.73844000         
H                    -0.14480000           1.19187000          -0.92430000         
H                     1.83180000          -0.42615000          -0.90113000         
H                     1.81556000           0.51358000           0.58125000         
H                     1.20490000          -1.14816000           0.58926000         
10
Image 7 energy:-0.00701 
C                    -1.24689000          -0.28905000           0.03212000         
C                    -0.10826000           0.28021000          -0.33427000         
C                     1.25604000          -0.22772000           0.00625000         
H                    -2.20499000           0.13200000          -0.24534000         
H                    -1.26085000          -1.19930000           0.62216000         
H                    -0.06343000           3.75036000           3.79696000         
H                    -0.14485000           1.19279000          -0.92322000         
H                     1.83494000          -0.42524000          -0.89967000         
H                     1.81440000           0.51407000           0.58301000         
H                     1.20482000          -1.14795000           0.58929000         
10
Image 8 energy:-0.00701 
C                    -1.24609000          -0.29243000           0.02703000         
C                    -0.10896000           0.28066000          -0.33123000         
C                     1.25522000          -0.22828000           0.00524000         
H                    -2.20495000           0.12732000          -0.25005000         
H                    -1.25895000          -1.20503000           0.61396000         
H                    -0.05300000           3.80399000           3.84835000         
H                    -0.14588000           1.19324000          -0.92057000         
H                     1.83249000          -0.42565000          -0.90137000         
H                     1.81415000           0.51349000           0.58145000         
H                     1.20486000          -1.14909000           0.58783000         
10
Image 9 energy:-0.00701 
C                    -1.24671000          -0.29526000           0.02542000         
C                    -0.10893000           0.28010000          -0.33491000         
C                     1.25524000          -0.22807000           0.00593000         
H                    -2.20540000           0.12491000          -0.25174000         
H                    -1.25988000          -1.21090000           0.60885000         
H                    -0.04523000           3.84731000           3.90659000         
H                    -0.14613000           1.19605000          -0.91989000         
H                     1.83257000          -0.42875000          -0.90019000         
H                     1.81546000           0.51417000           0.58007000         
H                     1.20399000          -1.14676000           0.59073000         
10
Image 10 energy:-0.00701 
C                    -1.24689000          -0.29940000           0.01917000         
C                    -0.10960000           0.28049000          -0.33147000         
C                     1.25522000          -0.22801000           0.00505000         
H                    -2.20568000           0.12055000          -0.25782000         
H                    -1.25966000          -1.21698000           0.59900000         
H                    -0.03366000           3.89822000           3.96306000         
H                    -0.14726000           1.19979000          -0.91031000         
H                     1.82901000          -0.43072000          -0.90319000         
H                     1.81796000           0.51533000           0.57579000         
H                     1.20512000          -1.14613000           0.59179000         
10
Image 11 energy:-0.00701 
C                    -1.24601000          -0.30122000           0.01543000         
C                    -0.10957000           0.28416000          -0.32708000         
C                     1.25568000          -0.22511000           0.00508000         
H                    -2.20535000           0.11955000          -0.25816000         
H                    -1.25721000          -1.22527000           0.58179000         
H                    -0.05313000           3.83439000           3.96343000         
H                    -0.14842000           1.20821000          -0.89819000         
H                     1.83035000          -0.41784000          -0.90456000         
H                     1.81643000           0.51382000           0.58326000         
H                     1.20688000          -1.14929000           0.58271000         
10
Image 12 energy:-0.00701 
C                    -1.24596000          -0.29954000           0.01716000         
C                    -0.10933000           0.28574000          -0.32658000         
C                     1.25608000          -0.22402000           0.00591000         
H                    -2.20519000           0.12173000          -0.25639000         
H                    -1.25786000          -1.22281000           0.58870000         
H                    -0.06299000           3.77175000           3.91263000         
H                    -0.14794000           1.21120000          -0.89538000         
H                     1.83159000          -0.41518000          -0.90373000         
H                     1.81659000           0.51375000           0.58599000         
H                     1.20699000          -1.14872000           0.58205000         
10
Image 13 energy:-0.00701 
C                    -1.24555000          -0.29831000           0.01813000         
C                    -0.10912000           0.28788000          -0.32321000         
C                     1.25610000          -0.22315000           0.00628000         
H                    -2.20496000           0.12393000          -0.25289000         
H                    -1.25656000          -1.22483000           0.58007000         
H                    -0.07166000           3.71690000           3.85862000         
H                    -0.14804000           1.21398000          -0.89103000         
H                     1.83054000          -0.41163000          -0.90434000         
H                     1.81704000           0.51291000           0.58786000         
H                     1.20726000          -1.15010000           0.57950000         
10
Image 14 energy:-0.00701 
C                    -1.24560000          -0.29667000           0.01983000         
C                    -0.10895000           0.28932000          -0.32274000         
C                     1.25649000          -0.22209000           0.00720000         
H                    -2.20480000           0.12592000          -0.25182000         
H                    -1.25762000          -1.22172000           0.58885000         
H                    -0.07897000           3.65640000           3.80569000         
H                    -0.14754000           1.21686000          -0.88817000         
H                     1.83174000          -0.40962000          -0.90336000         
H                     1.81728000           0.51319000           0.59016000         
H                     1.20744000          -1.14906000           0.57959000         
10
Image 15 energy:-0.00701 
C                    -1.24523000          -0.29539000           0.02096000         
C                    -0.10875000           0.29139000          -0.31933000         
C                     1.25643000          -0.22134000           0.00768000         
H                    -2.20467000           0.12826000          -0.24771000         
H                    -1.25619000          -1.22396000           0.57944000         
H                    -0.08581000           3.60409000           3.74805000         
H                    -0.14764000           1.21939000          -0.88400000         
H                     1.83054000          -0.40633000          -0.90387000         
H                     1.81777000           0.51222000           0.59204000         
H                     1.20750000          -1.15055000           0.57723000         
10
Image 16 energy:-0.00700 
C                    -1.24528000          -0.29380000           0.02261000         
C                    -0.10863000           0.29281000          -0.31871000         
C                     1.25678000          -0.22025000           0.00863000         
H                    -2.20446000           0.13009000          -0.24710000         
H                    -1.25736000          -1.22067000           0.58853000         
H                    -0.09184000           3.54380000           3.69388000         
H                    -0.14719000           1.22216000          -0.88121000         
H                     1.83168000          -0.40416000          -0.90285000         
H                     1.81786000           0.51256000           0.59437000         
H                     1.20775000          -1.14956000           0.57725000         
10
Image 17 energy:-0.00700 
C                    -1.24500000          -0.29251000           0.02385000         
C                    -0.10845000           0.29483000          -0.31554000         
C                     1.25675000          -0.21945000           0.00923000         
H                    -2.20443000           0.13252000          -0.24269000         
H                    -1.25605000          -1.22286000           0.57978000         
H                    -0.09771000           3.49065000           3.63433000         
H                    -0.14730000           1.22491000          -0.87678000         
H                     1.83087000          -0.40077000          -0.90310000         
H                     1.81824000           0.51160000           0.59665000         
H                     1.20776000          -1.15086000           0.57502000         
10
Image 18 energy:-0.00700 
C                    -1.24496000          -0.29106000           0.02529000         
C                    -0.10835000           0.29642000          -0.31438000         
C                     1.25700000          -0.21831000           0.01024000         
H                    -2.20416000           0.13413000          -0.24228000         
H                    -1.25697000          -1.22009000           0.58718000         
H                    -0.10301000           3.43052000           3.57763000         
H                    -0.14691000           1.22762000          -0.87382000         
H                     1.83156000          -0.39811000          -0.90218000         
H                     1.81827000           0.51177000           0.59910000         
H                     1.20798000          -1.15034000           0.57459000         
10
Image 19 energy:-0.00699 
C                    -1.24481000          -0.28970000           0.02667000         
C                    -0.10821000           0.29831000          -0.31166000         
C                     1.25704000          -0.21740000           0.01102000         
H                    -2.20422000           0.13662000          -0.23792000         
H                    -1.25601000          -1.22178000           0.58026000         
H                    -0.10780000           3.37547000           3.51641000         
H                    -0.14702000           1.23053000          -0.86931000         
H                     1.83139000          -0.39495000          -0.90197000         
H                     1.81848000           0.51115000           0.60163000         
H                     1.20803000          -1.15093000           0.57302000         
10
Image 20 energy:-0.00698 
C                    -1.24469000          -0.28836000           0.02796000         
C                    -0.10811000           0.30008000          -0.30993000         
C                     1.25717000          -0.21628000           0.01204000         
H                    -2.20392000           0.13812000          -0.23743000         
H                    -1.25662000          -1.21966000           0.58570000         
H                    -0.11220000           3.31602000           3.45713000         
H                    -0.14667000           1.23320000          -0.86618000         
H                     1.83138000          -0.39188000          -0.90131000         
H                     1.81862000           0.51098000           0.60408000         
H                     1.20810000          -1.15114000           0.57196000         
10
Image 21 energy:-0.00697 
C                    -1.24468000          -0.28691000           0.02950000         
C                    -0.10801000           0.30178000          -0.30766000         
C                     1.25727000          -0.21531000           0.01295000         
H                    -2.20407000           0.14068000          -0.23315000         
H                    -1.25601000          -1.22073000           0.58053000         
H                    -0.11578000           3.25964000           3.39492000         
H                    -0.14679000           1.23614000          -0.86174000         
H                     1.83190000          -0.38919000          -0.90065000         
H                     1.81866000           0.51084000           0.60665000         
H                     1.20828000          -1.15079000           0.57133000         
10
Image 22 energy:-0.00696 
C                    -1.24448000          -0.28560000           0.03080000         
C                    -0.10792000           0.30365000          -0.30556000         
C                     1.25730000          -0.21424000           0.01395000         
H                    -2.20371000           0.14207000          -0.23262000         
H                    -1.25637000          -1.21886000           0.58500000         
H                    -0.11929000           3.20167000           3.33348000         
H                    -0.14644000           1.23850000          -0.85889000         
H                     1.83116000          -0.38576000          -0.90027000         
H                     1.81888000           0.51029000           0.60909000         
H                     1.20815000          -1.15190000           0.56954000         
10
Image 23 energy:-0.00694 
C                    -1.24460000          -0.28404000           0.03248000         
C                    -0.10785000           0.30512000          -0.30373000         
C                     1.25745000          -0.21323000           0.01495000         
H                    -2.20396000           0.14476000          -0.22827000         
H                    -1.25604000          -1.21943000           0.58104000         
H                    -0.12196000           3.14456000           3.27120000         
H                    -0.14659000           1.24134000          -0.85466000         
H                     1.83252000          -0.38355000          -0.89912000         
H                     1.81864000           0.51066000           0.61165000         
H                     1.20852000          -1.15045000           0.56993000         
10
Image 24 energy:-0.00692 
C                    -1.24431000          -0.28276000           0.03378000         
C                    -0.10775000           0.30710000          -0.30137000         
C                     1.25738000          -0.21218000           0.01595000         
H                    -2.20351000           0.14601000          -0.22792000         
H                    -1.25623000          -1.21767000           0.58507000         
H                    -0.12477000           3.08761000           3.20892000         
H                    -0.14620000           1.24346000          -0.85214000         
H                     1.83102000          -0.37958000          -0.89905000         
H                     1.81899000           0.50960000           0.61428000         
H                     1.20808000          -1.15274000           0.56712000         
10
Image 25 energy:-0.00689 
C                    -1.24455000          -0.28112000           0.03554000         
C                    -0.10773000           0.30841000          -0.29985000         
C                     1.25758000          -0.21118000           0.01694000         
H                    -2.20390000           0.14887000          -0.22331000         
H                    -1.25609000          -1.21800000           0.58165000         
H                    -0.12647000           3.02995000           3.14718000         
H                    -0.14643000           1.24632000          -0.84790000         
H                     1.83317000          -0.37802000          -0.89750000         
H                     1.81851000           0.51049000           0.61656000         
H                     1.20874000          -1.14999000           0.56865000         
10
Image 26 energy:-0.00686 
C                    -1.24418000          -0.27990000           0.03682000         
C                    -0.10761000           0.31045000          -0.29733000         
C                     1.25744000          -0.21011000           0.01801000         
H                    -2.20335000           0.14992000          -0.22328000         
H                    -1.25617000          -1.21627000           0.58556000         
H                    -0.12892000           2.97423000           3.08417000         
H                    -0.14598000           1.24820000          -0.84571000         
H                     1.83088000          -0.37354000          -0.89770000         
H                     1.81904000           0.50904000           0.61941000         
H                     1.20797000          -1.15347000           0.56490000         
10
Image 27 energy:-0.00683 
C                    -1.24451000          -0.27823000           0.03857000         
C                    -0.10763000           0.31165000          -0.29596000         
C                     1.25767000          -0.20913000           0.01898000         
H                    -2.20385000           0.15289000          -0.21850000         
H                    -1.25614000          -1.21650000           0.58236000         
H                    -0.12998000           2.91627000           3.02293000         
H                    -0.14627000           1.25116000          -0.84128000         
H                     1.83370000          -0.37288000          -0.89582000         
H                     1.81842000           0.51056000           0.62117000         
H                     1.20892000          -1.14933000           0.56780000         
10
Image 28 energy:-0.00679 
C                    -1.24409000          -0.27706000           0.03984000         
C                    -0.10750000           0.31375000          -0.29331000         
C                     1.25750000          -0.20803000           0.02011000         
H                    -2.20323000           0.15382000          -0.21855000         
H                    -1.25615000          -1.21486000           0.58600000         
H                    -0.13214000           2.86140000           2.95935000         
H                    -0.14580000           1.25287000          -0.83933000         
H                     1.83051000          -0.36833000          -0.89626000         
H                     1.81933000           0.50881000           0.62386000         
H                     1.20788000          -1.15358000           0.56353000         
10
Image 29 energy:-0.00674 
C                    -1.24448000          -0.27541000           0.04153000         
C                    -0.10754000           0.31495000          -0.29195000         
C                     1.25772000          -0.20707000           0.02106000         
H                    -2.20375000           0.15673000          -0.21412000         
H                    -1.25621000          -1.21508000           0.58306000         
H                    -0.13250000           2.80310000           2.89836000         
H                    -0.14609000           1.25605000          -0.83455000         
H                     1.83375000          -0.36832000          -0.89435000         
H                     1.81871000           0.51094000           0.62519000         
H                     1.20898000          -1.14864000           0.56740000         
10
Image 30 energy:-0.00669 
C                    -1.24405000          -0.27435000           0.04261000         
C                    -0.10743000           0.31713000          -0.28912000         
C                     1.25756000          -0.20589000           0.02229000         
H                    -2.20320000           0.15769000          -0.21373000         
H                    -1.25621000          -1.21381000           0.58570000         
H                    -0.13439000           2.74847000           2.83431000         
H                    -0.14572000           1.25789000          -0.83226000         
H                     1.82938000          -0.36484000          -0.89471000         
H                     1.82042000           0.50915000           0.62672000         
H                     1.20792000          -1.15239000           0.56378000         
10
Image 31 energy:-0.00662 
C                    -1.24448000          -0.27274000           0.04432000         
C                    -0.10745000           0.31841000          -0.28759000         
C                     1.25772000          -0.20502000           0.02314000         
H                    -2.20365000           0.16025000          -0.21030000         
H                    -1.25628000          -1.21392000           0.58340000         
H                    -0.13434000           2.69059000           2.77282000         
H                    -0.14585000           1.26109000          -0.82747000         
H                     1.83337000          -0.36429000          -0.89355000         
H                     1.81961000           0.51175000           0.62881000         
H                     1.20883000          -1.14818000           0.56736000         
10
Image 32 energy:-0.00655 
C                    -1.24396000          -0.27183000           0.04500000         
C                    -0.10741000           0.32070000          -0.28455000         
C                     1.25762000          -0.20373000           0.02448000         
H                    -2.20315000           0.16149000          -0.20907000         
H                    -1.25624000          -1.21332000           0.58433000         
H                    -0.13585000           2.63586000           2.70994000         
H                    -0.14574000           1.26349000          -0.82413000         
H                     1.82602000          -0.36450000          -0.89300000         
H                     1.82303000           0.50994000           0.62620000         
H                     1.20822000          -1.14916000           0.56647000         
10
Image 33 energy:-0.00646 
C                    -1.24456000          -0.27022000           0.04708000         
C                    -0.10733000           0.32197000          -0.28310000         
C                     1.25773000          -0.20317000           0.02501000         
H                    -2.20367000           0.16372000          -0.20614000         
H                    -1.25650000          -1.21328000           0.58323000         
H                    -0.13577000           2.58166000           2.64863000         
H                    -0.14556000           1.26619000          -0.82027000         
H                     1.83465000          -0.35951000          -0.89389000         
H                     1.82027000           0.51325000           0.63398000         
H                     1.20769000          -1.14914000           0.56700000         
10
Image 34 energy:-0.00636 
C                    -1.24382000          -0.26954000           0.04677000         
C                    -0.10741000           0.32430000          -0.27959000         
C                     1.25757000          -0.20177000           0.02645000         
H                    -2.20295000           0.16471000          -0.20586000         
H                    -1.25598000          -1.21368000           0.58094000         
H                    -0.13726000           2.52947000           2.59377000         
H                    -0.14580000           1.27008000          -0.81396000         
H                     1.81931000          -0.36980000          -0.89032000         
H                     1.82706000           0.51164000           0.61932000         
H                     1.21080000          -1.14200000           0.57327000         
10
Image 35 energy:-0.00628 
C                    -1.24449000          -0.26814000           0.04919000         
C                    -0.10725000           0.32546000          -0.27838000         
C                     1.25781000          -0.20131000           0.02692000         
H                    -2.20353000           0.16740000          -0.20159000         
H                    -1.25679000          -1.21298000           0.58246000         