19
Image 1 energy:-0.04273 
C                     1.74751000          -1.28882000          -0.20781000         
C                     1.10978000          -0.00242000           0.22204000         
C                     1.73270000           1.28693000          -0.22076000         
C                    -0.31318000          -0.00675000           0.69569000         
C                    -1.35553000           0.00839000          -0.45671000         
C                    -2.80200000           0.00253000           0.05305000         
H                     1.35977000          -2.14701000           0.36337000         
H                     2.84298000          -1.26070000          -0.08378000         
H                     1.56632000          -1.51255000          -1.28008000         
H                     1.34777000           2.14449000           0.35337000         
H                     1.53364000           1.50674000          -1.29091000         
H                     2.82976000           1.26575000          -0.11296000         
H                    -0.50230000           0.87117000           1.33876000         
H                    -0.50446000          -0.90158000           1.31511000         
H                    -1.18368000          -0.86582000          -1.10487000         
H                    -1.18317000           0.89911000          -1.08275000         
H                    -3.52305000           0.01434000          -0.77832000         
H                    -3.00196000           0.88183000           0.68458000         
H                    -3.00173000          -0.89413000           0.66058000         
19
Image 2 energy:-0.04255 
C                     1.74601000          -1.28768000          -0.20965000         
C                     1.11186000          -0.00105000           0.22612000         
C                     1.73540000           1.28887000          -0.21606000         
C                    -0.31335000          -0.00781000           0.69654000         
C                    -1.35514000           0.00296000          -0.45766000         
C                    -2.80417000           0.00527000           0.04810000         
H                     1.41582000          -2.13649000           0.42030000         
H                     2.85608000          -1.23346000          -0.17340000         
H                     1.48315000          -1.55026000          -1.26354000         
H                     1.37701000           2.14189000           0.38053000         
H                     1.50417000           1.52653000          -1.27717000         
H                     2.84187000           1.25388000          -0.14929000         
H                    -0.50441000           0.86820000           1.33845000         
H                    -0.50284000          -0.90483000           1.31329000         
H                    -1.18619000          -0.87870000          -1.09442000         
H                    -1.18049000           0.88710000          -1.09191000         
H                    -3.52417000           0.01899000          -0.77921000         
H                    -3.00425000           0.88884000           0.67548000         
H                    -3.01189000          -0.88839000           0.66036000         
19
Image 3 energy:-0.04271 
C                     1.74564000          -1.29261000          -0.20285000         
C                     1.10999000          -0.00337000           0.22168000         
C                     1.73271000           1.28469000          -0.22520000         
C                    -0.31329000          -0.00383000           0.69479000         
C                    -1.35541000           0.02386000          -0.45768000         
C                    -2.79999000          -0.00812000           0.05449000         
H                     1.35987000          -2.14633000           0.37154000         
H                     2.83893000          -1.26377000          -0.08223000         
H                     1.56227000          -1.52407000          -1.27207000         
H                     1.34608000           2.14323000           0.34599000         
H                     1.53409000           1.50166000          -1.29579000         
H                     2.82867000           1.26558000          -0.11554000         
H                    -0.49912000           0.87412000           1.34047000         
H                    -0.50884000          -0.89871000           1.31195000         
H                    -1.17572000          -0.83648000          -1.12458000         
H                    -1.19149000           0.92799000          -1.06602000         
H                    -3.52243000           0.01898000          -0.77545000         
H                    -3.00509000           0.85240000           0.71065000         
H                    -2.99187000          -0.92194000           0.63625000         
19
Image 4 energy:-0.04259 
C                     1.75186000          -1.28942000          -0.20601000         
C                     1.10891000          -0.00540000           0.22523000         
C                     1.73076000           1.28189000          -0.22810000         
C                    -0.31561000          -0.00814000           0.69707000         
C                    -1.35779000           0.02474000          -0.45805000         
C                    -2.80002000          -0.00399000           0.05768000         
H                     1.31309000          -2.15958000           0.30856000         
H                     2.84306000          -1.28599000          -0.01472000         
H                     1.63688000          -1.47105000          -1.29902000         
H                     1.31790000           2.14612000           0.30968000         
H                     1.55910000           1.46816000          -1.30933000         
H                     2.83065000           1.28138000          -0.09656000         
H                    -0.50118000           0.87338000           1.33706000         
H                    -0.51175000          -0.90045000           1.31435000         
H                    -1.18226000          -0.83755000          -1.12399000         
H                    -1.19150000           0.92778000          -1.06515000         
H                    -3.52683000          -0.00664000          -0.76039000         
H                    -3.00930000           0.87157000           0.69152000         
H                    -2.98425000          -0.90330000           0.66237000         
19
Image 5 energy:-0.04270 
C                     1.75040000          -1.28725000          -0.20974000         
C                     1.10961000          -0.00249000           0.21984000         
C                     1.73197000           1.28807000          -0.22000000         
C                    -0.31223000          -0.00909000           0.69577000         
C                    -1.35631000           0.00107000          -0.45432000         
C                    -2.80457000           0.00910000           0.05319000         
H                     1.36522000          -2.14762000           0.36293000         
H                     2.84574000          -1.25545000          -0.08366000         
H                     1.57094000          -1.51040000          -1.28201000         
H                     1.34915000           2.14445000           0.35840000         
H                     1.53222000           1.51300000          -1.28926000         
H                     2.82797000           1.26369000          -0.11292000         
H                    -0.50278000           0.86573000           1.34259000         
H                    -0.50002000          -0.90661000           1.31355000         
H                    -1.18950000          -0.87918000          -1.09348000         
H                    -1.17919000           0.88511000          -1.08896000         
H                    -3.52355000           0.02825000          -0.78108000         
H                    -2.99866000           0.89037000           0.67979000         
H                    -3.01272000          -0.88435000           0.66516000         
19
Image 6 energy:-0.04263 
C                     1.74323000          -1.29028000          -0.20622000         
C                     1.11096000          -0.00242000           0.22644000         
C                     1.73234000           1.28695000          -0.22079000         
C                    -0.31390000          -0.00664000           0.69665000         
C                    -1.35360000           0.01576000          -0.46080000         
C                    -2.79925000          -0.00247000           0.05023000         
H                     1.41192000          -2.13742000           0.42404000         
H                     2.84635000          -1.23902000          -0.16237000         
H                     1.48858000          -1.55411000          -1.25724000         
H                     1.37151000           2.14118000           0.37367000         
H                     1.49938000           1.51964000          -1.28171000         
H                     2.83441000           1.25801000          -0.15025000         
H                    -0.50359000           0.86819000           1.34331000         
H                    -0.50869000          -0.90502000           1.30897000         
H                    -1.17721000          -0.85582000          -1.11127000         
H                    -1.18040000           0.90837000          -1.08181000         
H                    -3.52469000           0.02704000          -0.76777000         
H                    -2.98978000           0.86303000           0.69856000         
H                    -2.99408000          -0.90485000           0.64570000         
19
Image 7 energy:-0.04258 
C                     1.74649000          -1.29376000          -0.20583000         
C                     1.10962000          -0.00435000           0.22070000         
C                     1.73779000           1.28117000          -0.22326000         
C                    -0.31314000           0.00253000           0.69556000         
C                    -1.35818000           0.02984000          -0.45440000         
C                    -2.80309000          -0.01408000           0.05406000         
H                     1.36902000          -2.14776000           0.36742000         
H                     2.84178000          -1.25970000          -0.09594000         
H                     1.55649000          -1.52902000          -1.27362000         
H                     1.35479000           2.13930000           0.34890000         
H                     1.54004000           1.50149000          -1.29259000         
H                     2.83403000           1.25711000          -0.11444000         
H                    -0.49798000           0.87606000           1.34171000         
H                    -0.50602000          -0.89638000           1.31107000         
H                    -1.16948000          -0.82045000          -1.12985000         
H                    -1.20842000           0.94304000          -1.05408000         
H                    -3.52083000          -0.03312000          -0.78653000         
H                    -3.03096000           0.87063000           0.67342000         
H                    -2.98529000          -0.91720000           0.67073000         
19
Image 8 energy:-0.04255 
C                     1.74826000          -1.29148000          -0.20088000         
C                     1.10777000          -0.00383000           0.21918000         
C                     1.73743000           1.27950000          -0.23255000         
C                    -0.31406000          -0.00337000           0.69536000         
C                    -1.35835000           0.03673000          -0.45493000         
C                    -2.80405000          -0.01642000           0.05840000         
H                     1.31124000          -2.15862000           0.32769000         
H                     2.83666000          -1.28169000          -0.00307000         
H                     1.63620000          -1.48342000          -1.29142000         
H                     1.33125000           2.14882000           0.30892000         
H                     1.57152000           1.47022000          -1.31456000         
H                     2.83139000           1.26581000          -0.09128000         
H                    -0.49593000           0.87996000           1.34166000         
H                    -0.51215000          -0.89341000           1.31352000         
H                    -1.17346000          -0.81584000          -1.13343000         
H                    -1.19947000           0.94915000          -1.05055000         
H                    -3.52734000           0.02275000          -0.76514000         
H                    -3.02239000           0.82329000           0.73882000         
H                    -2.98057000          -0.94041000           0.61177000         
19
Image 9 energy:-0.04196 
C                     1.74513000          -1.29033000          -0.20141000         
C                     1.11013000           0.00006000           0.22445000         
C                     1.73862000           1.28223000          -0.23178000         
C                    -0.31420000           0.00568000           0.69688000         
C                    -1.35840000           0.01978000          -0.45762000         
C                    -2.80267000          -0.01371000           0.05641000         
H                     1.29886000          -2.14939000           0.32497000         
H                     2.83948000          -1.29812000          -0.02337000         
H                     1.61186000          -1.48264000          -1.29346000         
H                     1.34652000           2.15273000           0.31703000         
H                     1.56023000           1.47823000          -1.30917000         
H                     2.83289000           1.26271000          -0.10505000         
H                    -0.52265000           0.88015000           1.30905000         
H                    -0.49155000          -0.89369000           1.34191000         
H                    -1.18577000          -0.84469000          -1.13129000         
H                    -1.18496000           0.91885000          -1.06026000         
H                    -3.53170000           0.11870000          -0.75578000         
H                    -2.97195000           0.78799000           0.79916000         
H                    -3.01354000          -0.97496000           0.55141000         
19
Image 10 energy:-0.04184 
C                     1.74775000          -1.28975000          -0.20577000         
C                     1.10996000          -0.00160000           0.22362000         
C                     1.74082000           1.28126000          -0.22560000         
C                    -0.31392000           0.00451000           0.69762000         
C                    -1.35927000           0.01623000          -0.45459000         
C                    -2.80673000          -0.01043000           0.05233000         
H                     1.36401000          -2.14745000           0.36902000         
H                     2.84568000          -1.25289000          -0.08232000         
H                     1.56904000          -1.52120000          -1.27990000         
H                     1.36164000           2.14525000           0.33528000         
H                     1.53624000           1.48862000          -1.29785000         
H                     2.83968000           1.25572000          -0.12628000         
H                    -0.47570000           0.89133000           1.36588000         
H                    -0.53029000          -0.88175000           1.29099000         
H                    -1.15269000          -0.84853000          -1.09336000         
H                    -1.22394000           0.91669000          -1.08926000         
H                    -3.52584000           0.09161000          -0.77588000         
H                    -2.99044000           0.81658000           0.76280000         
H                    -3.02981000          -0.95660000           0.57771000         
19
Image 11 energy:-0.04253 
C                     1.75112000          -1.28864000          -0.20654000         
C                     1.11060000          -0.00432000           0.22244000         
C                     1.73516000           1.28341000          -0.22408000         
C                    -0.31155000          -0.00710000           0.69825000         
C                    -1.35637000           0.01771000          -0.45156000         
C                    -2.80975000          -0.00252000           0.04803000         
H                     1.41366000          -2.14579000           0.40598000         
H                     2.85061000          -1.22796000          -0.13696000         
H                     1.51973000          -1.54050000          -1.26351000         
H                     1.37011000           2.14102000           0.36858000         
H                     1.51514000           1.51364000          -1.28995000         
H                     2.83655000           1.24949000          -0.13922000         
H                    -0.50292000           0.87862000           1.32594000         
H                    -0.49761000          -0.89399000           1.33572000         
H                    -1.18839000          -0.84933000          -1.11734000         
H                    -1.17913000           0.91605000          -1.05936000         
H                    -3.52218000           0.03498000          -0.79297000         
H                    -3.00555000           0.85885000           0.70418000         
H                    -3.02941000          -0.91756000           0.62845000         
19
Image 12 energy:-0.04269 
C                     1.73409000          -1.29162000          -0.21531000         
C                     1.11271000          -0.00118000           0.22786000         
C                     1.72841000           1.29159000          -0.21428000         
C                    -0.31098000          -0.00350000           0.69977000         
C                    -1.34770000           0.00191000          -0.45847000         
C                    -2.79382000           0.00299000           0.04816000         
H                     1.39240000          -2.13752000           0.39976000         
H                     2.83352000          -1.25461000          -0.16823000         
H                     1.47983000          -1.54643000          -1.26542000         
H                     1.37418000           2.13835000           0.39136000         
H                     1.48625000           1.53750000          -1.26831000         
H                     2.82667000           1.26167000          -0.15352000         
H                    -0.50523000           0.87994000           1.33447000         
H                    -0.50200000          -0.89338000           1.32545000         
H                    -1.17216000          -0.88146000          -1.09425000         
H                    -1.17379000           0.88361000          -1.09666000         
H                    -3.51350000          -0.01708000          -0.78342000         
H                    -2.99960000           0.90140000           0.64935000         
H                    -2.98780000          -0.87430000           0.68487000         
19
Image 13 energy:-0.04061 
C                     1.73749000          -1.29205000          -0.21055000         
C                     1.11324000          -0.00259000           0.22847000         
C                     1.72738000           1.29102000          -0.21604000         
C                    -0.31095000          -0.01083000           0.69948000         
C                    -1.34802000           0.01450000          -0.45848000         
C                    -2.79596000           0.00182000           0.04508000         
H                     1.41295000          -2.13131000           0.40393000         
H                     2.82641000          -1.25381000          -0.17864000         
H                     1.47577000          -1.55705000          -1.24411000         
H                     1.42613000           2.13289000           0.45504000         
H                     1.41135000           1.57795000          -1.26060000         
H                     2.84293000           1.22517000          -0.22865000         
H                    -0.51923000           0.87047000           1.31733000         
H                    -0.48816000          -0.90282000           1.34287000         
H                    -1.13420000          -0.87336000          -1.05571000         
H                    -1.21135000           0.89142000          -1.13492000         
H                    -3.51237000          -0.03598000          -0.78931000         
H                    -3.01777000           0.90510000           0.63742000         
H                    -2.97898000          -0.87101000           0.68818000         
19
Image 14 energy:-0.04207 
C                     1.73668000          -1.29050000          -0.21507000         
C                     1.11277000          -0.00148000           0.22807000         
C                     1.73607000           1.28832000          -0.21211000         
C                    -0.31114000           0.00240000           0.69936000         
C                    -1.35120000           0.00045000          -0.45745000         
C                    -2.80060000          -0.00007000           0.04508000         
H                     1.43808000          -2.13288000           0.42954000         
H                     2.83462000          -1.22867000          -0.21022000         
H                     1.44585000          -1.56970000          -1.24931000         
H                     1.39892000           2.13532000           0.42331000         
H                     1.45927000           1.55450000          -1.26911000         
H                     2.84785000           1.24312000          -0.18133000         
H                    -0.49387000           0.88854000           1.34443000         
H                    -0.51355000          -0.88483000           1.31411000         
H                    -1.19431000          -0.87640000          -1.11931000         
H                    -1.15726000           0.88875000          -1.06834000         
H                    -3.51844000          -0.03139000          -0.78574000         
H                    -3.01798000           0.90007000           0.64271000         
H                    -2.98883000          -0.87591000           0.68290000         
19
Image 15 energy:-0.04124 
C                     1.73895000          -1.28904000          -0.21655000         
C                     1.11146000          -0.00204000           0.22676000         
C                     1.73650000           1.28746000          -0.21386000         
C                    -0.31144000          -0.00524000           0.69973000         
C                    -1.35218000           0.00917000          -0.45580000         
C                    -2.80209000           0.00045000           0.04762000         
H                     1.41868000          -2.14322000           0.43528000         
H                     2.86105000          -1.22401000          -0.20306000         
H                     1.44507000          -1.55720000          -1.27867000         
H                     1.35785000           2.13828000           0.34968000         
H                     1.54494000           1.51111000          -1.26980000         
H                     2.82003000           1.27102000          -0.10652000         
H                    -0.50953000           0.88085000           1.32320000         
H                    -0.49625000          -0.89218000           1.33701000         
H                    -1.15938000          -0.87701000          -1.07406000         
H                    -1.19553000           0.88889000          -1.10957000         
H                    -3.51999000          -0.01188000          -0.78298000         
H                    -3.01592000           0.89095000           0.66292000         
H                    -2.99420000          -0.88466000           0.66992000         
19
Image 16 energy:-0.04272 
C                     1.73710000          -1.28744000          -0.21628000         
C                     1.11105000           0.00077000           0.22526000         
C                     1.73995000           1.28768000          -0.21585000         
C                    -0.31375000           0.00175000           0.69669000         
C                    -1.35535000          -0.00148000          -0.45631000         
C                    -2.79930000          -0.00115000           0.05414000         
H                     1.34559000          -2.14630000           0.34816000         
H                     2.83257000          -1.26898000          -0.09967000         
H                     1.54868000          -1.50143000          -1.28884000         
H                     1.35500000           2.14762000           0.35556000         
H                     1.54431000           1.50567000          -1.28853000         
H                     2.83809000           1.26303000          -0.10615000         
H                    -0.50255000           0.88881000           1.32863000         
H                    -0.50393000          -0.88448000           1.32894000         
H                    -1.18221000          -0.88400000          -1.09401000         
H                    -1.18084000           0.88147000          -1.09233000         
H                    -3.51811000           0.00313000          -0.77961000         
H                    -2.99877000           0.88572000           0.67477000         
H                    -3.00308000          -0.89174000           0.66920000         
19
Image 17 energy:-0.04257 
C                     1.73947000          -1.28656000          -0.21857000         
C                     1.11244000          -0.00010000           0.22669000         
C                     1.73924000           1.28650000          -0.21861000         
C                    -0.31406000          -0.00036000           0.69718000         
C                    -1.35959000           0.00054000          -0.45672000         
C                    -2.79836000           0.00005000           0.05714000         
H                     1.30167000          -2.15373000           0.30493000         
H                     2.83133000          -1.29402000          -0.04389000         
H                     1.59984000          -1.46633000          -1.31092000         
H                     1.30060000           2.15355000           0.30360000         
H                     1.60122000           1.46568000          -1.31077000         
H                     2.83043000           1.29470000          -0.04247000         
H                    -0.50453000           0.88661000           1.32509000         
H                    -0.50351000          -0.88750000           1.32609000         
H                    -1.18124000          -0.88299000          -1.08983000         
H                    -1.18500000           0.88317000          -1.09413000         
H                    -3.52637000          -0.00039000          -0.75819000         
H                    -2.99197000           0.88747000           0.67653000         
H                    -2.99098000          -0.88722000           0.67670000         
19
Image 18 energy:-0.04255 
C                     1.73277000          -1.28741000          -0.22144000         
C                     1.10609000           0.00003000           0.22264000         
C                     1.73286000           1.28743000          -0.22144000         
C                    -0.30690000           0.00006000           0.71304000         
C                    -1.34076000          -0.00010000          -0.44601000         
C                    -2.80477000          -0.00003000           0.04233000         
H                     1.34238000          -2.14765000           0.33738000         
H                     2.82703000          -1.27249000          -0.10427000         
H                     1.54895000          -1.49416000          -1.29190000         
H                     1.34273000           2.14771000           0.33767000         
H                     1.54871000           1.49433000          -1.29191000         
H                     2.82724000           1.27229000          -0.10459000         
H                    -0.49519000           0.88481000           1.34471000         
H                    -0.49536000          -0.88464000           1.34463000         
H                    -1.16100000          -0.88440000          -1.08022000         
H                    -1.16039000           0.88441000          -1.07951000         
H                    -3.51787000           0.00007000          -0.79865000         
H                    -3.01367000           0.88761000           0.66274000         
H                    -3.01386000          -0.88771000           0.66268000         
19
Image 19 energy:-0.04242 
C                     1.74085000          -1.28962000          -0.21314000         
C                     1.11006000          -0.00001000           0.21998000         
C                     1.74082000           1.28962000          -0.21317000         
C                    -0.30682000          -0.00006000           0.69737000         
C                    -1.35586000           0.00006000          -0.45635000         
C                    -2.80716000           0.00001000           0.05111000         
H                     1.37502000          -2.14306000           0.39348000         
H                     2.84160000          -1.25115000          -0.12798000         