16
Image 1 energy:-0.04274 
C                     0.45437000           0.00009000           1.46506000         
C                     0.02154000           0.00001000           0.02867000         
C                    -1.53390000          -0.00041000          -0.02563000         
C                     0.55386000           1.26506000          -0.68191000         
C                     0.55453000          -1.26474000          -0.68196000         
H                     0.52688000           0.93360000           2.02591000         
H                     0.52735000          -0.93341000           2.02586000         
H                    -1.93714000           0.89093000           0.47543000         
H                    -1.93680000          -0.89168000           0.47586000         
H                    -1.89233000          -0.00074000          -1.06979000         
H                     0.18662000           2.17448000          -0.18547000         
H                     0.21504000           1.29144000          -1.72870000         
H                     1.65298000           1.29202000          -0.67283000         
H                     0.18747000          -2.17436000          -0.18563000         
H                     1.65377000          -1.29125000          -0.67258000         
H                     0.21597000          -1.29114000          -1.72895000         
16
Image 2 energy:-0.04249 
C                     0.47316000           0.00009000           1.47677000         
C                     0.02686000           0.00001000           0.04264000         
C                    -1.52371000          -0.00039000          -0.04094000         
C                     0.53963000           1.26338000          -0.68290000         
C                     0.54026000          -1.26307000          -0.68296000         
H                     0.54102000           0.93407000           2.03685000         
H                     0.54150000          -0.93386000           2.03681000         
H                    -1.93999000           0.89112000           0.44987000         
H                    -1.93952000          -0.89197000           0.45017000         
H                    -1.85424000          -0.00067000          -1.09419000         
H                     0.12341000           2.17793000          -0.22448000         
H                     0.23055000           1.24765000          -1.74029000         
H                     1.63584000           1.32964000          -0.64530000         
H                     0.12483000          -2.17788000          -0.22442000         
H                     1.63648000          -1.32859000          -0.64568000         
H                     0.23088000          -1.24761000          -1.74022000         
16
Image 3 energy:-0.04109 
C                     0.46459000           0.00010000           1.46804000         
C                     0.02439000           0.00000000           0.02986000         
C                    -1.53269000          -0.00039000          -0.02045000         
C                     0.54983000           1.26585000          -0.68399000         
C                     0.55048000          -1.26554000          -0.68404000         
H                     0.52573000           0.93416000           2.02748000         
H                     0.52624000          -0.93395000           2.02745000         
H                    -1.99147000           0.88969000           0.45924000         
H                    -1.99090000          -0.89068000           0.45933000         
H                    -1.78411000          -0.00052000          -1.07194000         
H                     0.13485000           2.17455000          -0.20930000         
H                     0.23526000           1.26309000          -1.74307000         
H                     1.64898000           1.33076000          -0.64976000         
H                     0.13615000          -2.17449000          -0.20929000         
H                     1.64962000          -1.32979000          -0.65002000         
H                     0.23571000          -1.26299000          -1.74302000         
16
Image 4 energy:-0.04253 
C                     0.46088000           0.00010000           1.46610000         
C                     0.02229000           0.00001000           0.03079000         
C                    -1.53201000          -0.00040000          -0.03092000         
C                     0.55121000           1.26439000          -0.68059000         
C                     0.55186000          -1.26408000          -0.68063000         
H                     0.52844000           0.93482000           2.02383000         
H                     0.52895000          -0.93461000           2.02379000         
H                    -1.94022000           0.89050000           0.47141000         
H                    -1.93979000          -0.89151000           0.47139000         
H                    -1.90242000          -0.00049000          -1.08078000         
H                     0.17089000           2.17244000          -0.17707000         
H                     0.21220000           1.28867000          -1.73394000         
H                     1.65534000           1.29596000          -0.66742000         
H                     0.17205000          -2.17234000          -0.17709000         
H                     1.65603000          -1.29505000          -0.66750000         
H                     0.21282000          -1.28853000          -1.73397000         
16
Image 5 energy:-0.04027 
C                     0.46151000           0.00009000           1.46322000         
C                     0.02426000           0.00000000           0.03526000         
C                    -1.54623000          -0.00039000          -0.03840000         
C                     0.54809000           1.26214000          -0.67806000         
C                     0.54875000          -1.26184000          -0.67809000         
H                     0.53207000           0.93582000           2.01771000         
H                     0.53260000          -0.93561000           2.01767000         
H                    -1.88843000           0.89003000           0.46632000         
H                    -1.88797000          -0.89105000           0.46624000         
H                    -1.82208000          -0.00042000          -1.08138000         
H                     0.21164000           2.17146000          -0.15359000         
H                     0.18793000           1.31573000          -1.72254000         
H                     1.64951000           1.24441000          -0.68584000         
H                     0.21283000          -2.17135000          -0.15359000         
H                     1.65016000          -1.24350000          -0.68595000         
H                     0.18855000          -1.31562000          -1.72255000         
16
Image 6 energy:-0.04213 
C                     0.46510000           0.00009000           1.46810000         
C                     0.01098000          -0.00000000           0.03419000         
C                    -1.52989000          -0.00038000          -0.04026000         
C                     0.55358000           1.26374000          -0.67692000         
C                     0.55426000          -1.26344000          -0.67695000         
H                     0.52917000           0.93351000           2.03030000         
H                     0.52970000          -0.93331000           2.03026000         
H                    -1.97802000           0.88715000           0.44492000         
H                    -1.97758000          -0.88819000           0.44481000         
H                    -1.88105000          -0.00039000          -1.09277000         
H                     0.26108000           2.17440000          -0.13178000         
H                     0.15344000           1.33684000          -1.70106000         
H                     1.65150000           1.24343000          -0.73984000         
H                     0.26233000          -2.17426000          -0.13178000         
H                     1.65216000          -1.24248000          -0.73996000         
H                     0.15408000          -1.33679000          -1.70107000         
16
Image 7 energy:-0.04114 
C                     0.47995000           0.00009000           1.47399000         
C                     0.02437000          -0.00000000           0.04063000         
C                    -1.57898000          -0.00038000          -0.04930000         
C                     0.56353000           1.26826000          -0.67753000         
C                     0.56422000          -1.26796000          -0.67756000         
H                     0.53178000           0.93274000           2.03946000         
H                     0.53232000          -0.93255000           2.03942000         
H                    -1.99470000           0.89079000           0.43840000         
H                    -1.99429000          -0.89182000           0.43826000         
H                    -1.88993000          -0.00037000          -1.10459000         
H                     0.29109000           2.17940000          -0.12326000         
H                     0.13857000           1.35092000          -1.69063000         
H                     1.66035000           1.23981000          -0.76785000         
H                     0.29238000          -2.17926000          -0.12325000         
H                     1.66102000          -1.23885000          -0.76798000         
H                     0.13922000          -1.35090000          -1.69062000         
16
Image 8 energy:-0.03721 
C                     0.48844000           0.00010000           1.47910000         
C                     0.05356000           0.00000000           0.04544000         
C                    -1.62258000          -0.00039000          -0.05390000         
C                     0.57203000           1.27237000          -0.67878000         
C                     0.57273000          -1.27207000          -0.67881000         
H                     0.52548000           0.93242000           2.04583000         
H                     0.52602000          -0.93223000           2.04579000         
H                    -2.03870000           0.89331000           0.43286000         
H                    -2.03830000          -0.89435000           0.43272000         
H                    -1.92256000          -0.00037000          -1.11387000         
H                     0.29998000           2.17950000          -0.11811000         
H                     0.12371000           1.35012000          -1.68136000         
H                     1.66693000           1.25999000          -0.79512000         
H                     0.30129000          -2.17936000          -0.11810000         
H                     1.66761000          -1.25902000          -0.79525000         
H                     0.12436000          -1.35011000          -1.68134000         
16
Image 9 energy:-0.03125 
C                     0.49363000           0.00010000           1.48200000         
C                     0.08900000           0.00001000           0.05059000         
C                    -1.66687000          -0.00040000          -0.05788000         
C                     0.57824000           1.27532000          -0.67967000         
C                     0.57895000          -1.27502000          -0.67970000         
H                     0.52020000           0.93233000           2.04891000         
H                     0.52075000          -0.93215000           2.04887000         
H                    -2.07031000           0.89687000           0.43029000         
H                    -2.06991000          -0.89792000           0.43014000         
H                    -1.94612000          -0.00037000          -1.12221000         
H                     0.30390000           2.17856000          -0.11432000         
H                     0.11196000           1.34623000          -1.67396000         
H                     1.67125000           1.27870000          -0.81631000         
H                     0.30522000          -2.17842000          -0.11432000         
H                     1.67194000          -1.27772000          -0.81645000         
H                     0.11261000          -1.34623000          -1.67394000         
16
Image 10 energy:-0.02430 
C                     0.49696000           0.00010000           1.48344000         
C                     0.12751000           0.00002000           0.05622000         
C                    -1.70990000          -0.00040000          -0.06161000         
C                     0.58308000           1.27762000          -0.68024000         
C                     0.58379000          -1.27732000          -0.68027000         
H                     0.51558000           0.93228000           2.05009000         
H                     0.51613000          -0.93209000           2.05006000         
H                    -2.09985000           0.90113000           0.42878000         
H                    -2.09945000          -0.90219000           0.42863000         
H                    -1.96780000          -0.00037000          -1.13073000         
H                     0.30643000           2.17729000          -0.11087000         
H                     0.10101000           1.34113000          -1.66697000         
H                     1.67401000           1.29597000          -0.83526000         
H                     0.30777000          -2.17716000          -0.11086000         
H                     1.67472000          -1.29499000          -0.83540000         
H                     0.10165000          -1.34114000          -1.66695000         
16
Image 11 energy:-0.01737 
C                     0.49891000           0.00010000           1.48332000         
C                     0.16783000           0.00003000           0.06289000         
C                    -1.75243000          -0.00041000          -0.06546000         
C                     0.58691000           1.27948000          -0.68052000         
C                     0.58762000          -1.27918000          -0.68055000         
H                     0.51154000           0.93213000           2.04985000         
H                     0.51209000          -0.93196000           2.04982000         
H                    -2.12382000           0.90538000           0.42790000         
H                    -2.12343000          -0.90645000           0.42774000         
H                    -1.98544000          -0.00037000          -1.13871000         
H                     0.30859000           2.17601000          -0.10755000         
H                     0.09003000           1.33541000          -1.66006000         
H                     1.67564000           1.31159000          -0.85312000         
H                     0.30993000          -2.17588000          -0.10754000         
H                     1.67635000          -1.31060000          -0.85327000         
H                     0.09068000          -1.33543000          -1.66004000         
16
Image 12 energy:-0.01137 
C                     0.49963000           0.00009000           1.48145000         
C                     0.20940000           0.00004000           0.07103000         
C                    -1.79356000          -0.00042000          -0.06953000         
C                     0.59013000           1.28100000          -0.68051000         
C                     0.59085000          -1.28070000          -0.68054000         
H                     0.50774000           0.93182000           2.04816000         
H                     0.50829000          -0.93165000           2.04812000         
H                    -2.14678000           0.90940000           0.42718000         
H                    -2.14639000          -0.91048000           0.42702000         
H                    -2.00289000          -0.00037000          -1.14622000         
H                     0.31078000           2.17453000          -0.10404000         
H                     0.07796000           1.32858000          -1.65209000         
H                     1.67571000           1.32665000          -0.87167000         
H                     0.31213000          -2.17440000          -0.10404000         
H                     1.67644000          -1.32566000          -0.87182000         
H                     0.07861000          -1.32861000          -1.65207000         
16
Image 13 energy:-0.00645 
C                     0.49935000           0.00009000           1.47823000         
C                     0.25197000           0.00005000           0.08010000         
C                    -1.83416000          -0.00042000          -0.07379000         
C                     0.59263000           1.28209000          -0.68028000         
C                     0.59335000          -1.28179000          -0.68031000         
H                     0.50462000           0.93136000           2.04571000         
H                     0.50517000          -0.93118000           2.04568000         
H                    -2.16520000           0.91357000           0.42730000         
H                    -2.16482000          -0.91465000           0.42713000         
H                    -2.01864000          -0.00036000          -1.15321000         
H                     0.31305000           2.17316000          -0.10078000         
H                     0.06629000           1.32163000          -1.64424000         
H                     1.67466000           1.33975000          -0.88917000         
H                     0.31441000          -2.17303000          -0.10077000         
H                     1.67540000          -1.33876000          -0.88933000         
H                     0.06693000          -1.32168000          -1.64421000         
16
Image 14 energy:-0.00273 
C                     0.49874000           0.00009000           1.47469000         
C                     0.29479000           0.00005000           0.08914000         
C                    -1.87479000          -0.00043000          -0.07826000         
C                     0.59488000           1.28285000          -0.67986000         
C                     0.59561000          -1.28256000          -0.67989000         
H                     0.50184000           0.93087000           2.04327000         
H                     0.50240000          -0.93070000           2.04324000         
H                    -2.18042000           0.91780000           0.42798000         
H                    -2.18004000          -0.91888000           0.42781000         
H                    -2.03441000          -0.00036000          -1.15976000         
H                     0.31576000           2.17188000          -0.09755000         
H                     0.05480000           1.31470000          -1.63640000         
H                     1.67309000           1.35159000          -0.90631000         
H                     0.31714000          -2.17176000          -0.09755000         
H                     1.67384000          -1.35059000          -0.90647000         
H                     0.05544000          -1.31475000          -1.63637000         
16
Image 15 energy:-0.00061 
C                     0.49854000           0.00009000           1.47194000         
C                     0.33677000           0.00006000           0.09684000         
C                    -1.91632000          -0.00043000          -0.08291000         
C                     0.59774000           1.28329000          -0.67918000         
C                     0.59848000          -1.28299000          -0.67922000         
H                     0.49895000           0.93051000           2.04145000         
H                     0.49954000          -0.93033000           2.04144000         
H                    -2.19359000           0.92172000           0.42869000         
H                    -2.19324000          -0.92279000           0.42851000         
H                    -2.05185000          -0.00034000          -1.16582000         
H                     0.31917000           2.17030000          -0.09392000         
H                     0.04276000           1.30678000          -1.62723000         
H                     1.67087000           1.36393000          -0.92479000         
H                     0.32058000          -2.17018000          -0.09392000         
H                     1.67164000          -1.36293000          -0.92496000         
H                     0.04340000          -1.30686000          -1.62720000         
16
Image 16 energy:0.00000 
C                     0.49914000           0.00009000           1.47010000         
C                     0.37727000           0.00007000           0.10324000         
C                    -1.95914000          -0.00044000          -0.08766000         
C                     0.60165000           1.28355000          -0.67835000         
C                     0.60239000          -1.28325000          -0.67839000         
H                     0.49587000           0.93023000           2.04036000         
H                     0.49646000          -0.93005000           2.04035000         
H                    -2.20654000           0.92530000           0.42927000         
H                    -2.20619000          -0.92637000           0.42908000         
H                    -2.07194000          -0.00035000          -1.17160000         
H                     0.32376000           2.16838000          -0.08974000         
H                     0.03026000           1.29837000          -1.61664000         
H                     1.66858000           1.37683000          -0.94483000         
H                     0.32517000          -2.16826000          -0.08974000         
H                     1.66935000          -1.37582000          -0.94500000         
H                     0.03090000          -1.29846000          -1.61660000         
16
Image 17 energy:-0.00044 
C                     0.49973000           0.00009000           1.46826000         
C                     0.41776000           0.00008000           0.10963000         
C                    -2.00196000          -0.00045000          -0.09242000         
C                     0.60556000           1.28381000          -0.67752000         
C                     0.60630000          -1.28351000          -0.67756000         
H                     0.49279000           0.92995000           2.03927000         
H                     0.49338000          -0.92977000           2.03926000         
H                    -2.21948000           0.92887000           0.42985000         
H                    -2.21914000          -0.92996000           0.42966000         
H                    -2.09203000          -0.00035000          -1.17738000         
H                     0.32834000           2.16646000          -0.08556000         
H                     0.01777000           1.28996000          -1.60605000         
H                     1.66628000           1.38972000          -0.96486000         
H                     0.32977000          -2.16635000          -0.08556000         
H                     1.66706000          -1.38872000          -0.96504000         
H                     0.01840000          -1.29006000          -1.60601000         
16
Image 18 energy:-0.00143 
C                     0.50129000           0.00009000           1.46754000         
C                     0.45581000           0.00009000           0.11442000         
C                    -2.04607000          -0.00046000          -0.09709000         
C                     0.61103000           1.28393000          -0.67660000         
C                     0.61176000          -1.28363000          -0.67663000         
H                     0.48929000           0.92975000           2.03908000         
H                     0.48984000          -0.92959000           2.03905000         
H                    -2.23426000           0.93188000           0.43008000         
H                    -2.23388000          -0.93298000           0.42991000         
H                    -2.11610000          -0.00037000          -1.18266000         
H                     0.33556000           2.16425000          -0.08047000         
H                     0.00462000           1.28165000          -1.59360000         
H                     1.66430000           1.40257000          -0.98722000         
H                     0.33696000          -2.16414000          -0.08048000         
H                     1.66507000          -1.40157000          -0.98740000         
H                     0.00524000          -1.28174000          -1.59355000         
16
Image 19 energy:-0.00263 
C                     0.50426000           0.00009000           1.46799000         
C                     0.48940000           0.00011000           0.11733000         
C                    -2.09175000          -0.00048000          -0.10159000         
C                     0.61898000           1.28388000          -0.67553000         
C                     0.61971000          -1.28357000          -0.67557000         
H                     0.48568000           0.92963000           2.03973000         
H                     0.48622000          -0.92948000           2.03970000         
H                    -2.25308000           0.93389000           0.42950000         
H                    -2.25268000          -0.93501000           0.42933000         
H                    -2.14677000          -0.00039000          -1.18731000         
H                     0.34876000           2.16202000          -0.07375000         
H                    -0.00967000           1.27452000          -1.57790000         
H                     1.66280000           1.41342000          -1.01335000         
H                     0.35014000          -2.16189000          -0.07376000         
H                     1.66357000          -1.41243000          -1.01352000         
H                    -0.00906000          -1.27460000          -1.57785000         
16
Image 20 energy:-0.00384 
C                     0.50820000           0.00009000           1.46776000         
C                     0.51979000           0.00011000           0.12008000         
C                    -2.13964000          -0.00049000          -0.10558000         
C                     0.62824000           1.28362000          -0.67445000         
C                     0.62896000          -1.28330000          -0.67449000         
H                     0.48465000           0.92950000           2.03962000         
H                     0.48519000          -0.92935000           2.03959000         
H                    -2.27282000           0.93592000           0.42922000         
H                    -2.27240000          -0.93705000           0.42906000         
H                    -2.17793000          -0.00041000          -1.19173000         
H                     0.36633000           2.16076000          -0.06751000         
H                    -0.02034000           1.27008000          -1.56263000         
H                     1.66275000           1.41862000          -1.03635000         
H                     0.36769000          -2.16063000          -0.06752000         
H                     1.66352000          -1.41764000          -1.03652000         
H                    -0.01974000          -1.27016000          -1.56258000         
16
Image 21 energy:-0.00492 
C                     0.51305000           0.00009000           1.46900000         
C                     0.54360000           0.00012000           0.12150000         
C                    -2.18621000          -0.00051000          -0.10967000         
C                     0.64008000           1.28324000          -0.67331000         
C                     0.64080000          -1.28292000          -0.67334000         
H                     0.48292000           0.92946000           2.04074000         
H                     0.48345000          -0.92931000           2.04071000         
H                    -2.29898000           0.93620000           0.42699000         
H                    -2.29854000          -0.93735000           0.42685000         
H                    -2.21863000          -0.00043000          -1.19539000         
H                     0.39626000           2.16035000          -0.05824000         
H                    -0.03668000           1.26944000          -1.54154000         
H                     1.66316000           1.41865000          -1.06890000         
H                     0.39760000          -2.16019000          -0.05827000         
H                     1.66392000          -1.41767000          -1.06907000         
H                    -0.03608000          -1.26952000          -1.54149000         
16
Image 22 energy:-0.00587 
C                     0.51783000           0.00010000           1.46729000         
C                     0.56903000           0.00013000           0.12439000         
C                    -2.23661000          -0.00052000          -0.11257000         
C                     0.65065000           1.28253000          -0.67244000         
C                     0.65136000          -1.28220000          -0.67248000         
H                     0.48695000           0.92932000           2.03913000         
H                     0.48748000          -0.92917000           2.03910000         
H                    -2.31819000           0.93903000           0.42862000         
H                    -2.31775000          -0.94019000           0.42848000         
H                    -2.25075000          -0.00044000          -1.19929000         
H                     0.42029000           2.16135000          -0.05512000         
H                    -0.03812000           1.27089000          -1.52932000         
H                     1.66611000           1.41225000          -1.08241000         