13
Image 1 energy:-0.04676 
C                    -1.69803000          -0.35829000          -0.05408000         
C                    -0.59871000           0.69018000           0.29398000         
C                     0.70149000           0.41043000          -0.38749000         
C                     1.65815000          -0.62053000           0.11915000         
H                    -1.40417000          -1.35721000           0.30476000         
H                    -1.84780000          -0.41757000          -1.14424000         
H                    -2.66032000          -0.09097000           0.41304000         
H                    -0.46040000           0.68640000           1.38897000         
H                    -0.96641000           1.69006000           0.01893000         
H                     0.83197000           0.76744000          -1.41139000         
H                     1.44804000          -1.62974000          -0.28170000         
H                     1.61706000          -0.70707000           1.21279000         
H                     2.69305000          -0.39153000          -0.16263000         
13
Image 2 energy:-0.04668 
C                    -1.69394000          -0.35295000          -0.05627000         
C                    -0.60338000           0.68152000           0.29160000         
C                     0.70705000           0.41327000          -0.38884000         
C                     1.65687000          -0.61798000           0.12676000         
H                    -1.37403000          -1.37030000           0.19946000         
H                    -1.91320000          -0.34172000          -1.13184000         
H                    -2.63094000          -0.15039000           0.47955000         
H                    -0.45707000           0.69214000           1.38797000         
H                    -0.97271000           1.68808000           0.01791000         
H                     0.81418000           0.73486000          -1.43005000         
H                     1.39635000          -1.64404000          -0.23303000         
H                     1.64553000          -0.65661000           1.23340000         
H                     2.69887000          -0.42679000          -0.20480000         
13
Image 3 energy:-0.04652 
C                    -1.70084000          -0.36056000          -0.05289000         
C                    -0.59308000           0.69668000           0.28778000         
C                     0.70049000           0.40274000          -0.39682000         
C                     1.65574000          -0.61918000           0.13054000         
H                    -1.34286000          -1.38371000           0.16484000         
H                    -1.95691000          -0.29855000          -1.12470000         
H                    -2.61427000          -0.17762000           0.54265000         
H                    -0.44481000           0.70413000           1.38065000         
H                    -0.96651000           1.69031000           0.00511000         
H                     0.83650000           0.75777000          -1.42128000         
H                     1.46850000          -1.63482000          -0.28091000         
H                     1.57441000          -0.70674000           1.22601000         
H                     2.70405000          -0.37582000          -0.11856000         
13
Image 4 energy:-0.04629 
C                    -1.70103000          -0.34340000          -0.03999000         
C                    -0.61005000           0.67508000           0.27322000         
C                     0.70629000           0.40329000          -0.39532000         
C                     1.66212000          -0.61963000           0.12774000         
H                    -1.34736000          -1.36073000           0.20993000         
H                    -1.94236000          -0.33096000          -1.11695000         
H                    -2.61855000          -0.13582000           0.53489000         
H                    -0.45074000           0.68955000           1.36982000         
H                    -0.96192000           1.68674000          -0.00045000         
H                     0.86635000           0.78966000          -1.40396000         
H                     1.51751000          -1.62009000          -0.32466000         
H                     1.54789000          -0.75028000           1.21383000         
H                     2.70659000          -0.34144000          -0.07349000         
13
Image 5 energy:-0.04623 
C                    -1.71627000          -0.36060000          -0.04611000         
C                    -0.59235000           0.69664000           0.28191000         
C                     0.70722000           0.40552000          -0.38880000         
C                     1.66671000          -0.62144000           0.12088000         
H                    -1.42372000          -1.36395000           0.28288000         
H                    -1.94284000          -0.41946000          -1.11927000         
H                    -2.65966000          -0.11217000           0.47147000         
H                    -0.46408000           0.70191000           1.37170000         
H                    -0.95711000           1.68508000          -0.00555000         
H                     0.87841000           0.80223000          -1.39564000         
H                     1.52116000          -1.60938000          -0.35649000         
H                     1.55699000          -0.77445000           1.20758000         
H                     2.71321000          -0.34008000          -0.07409000         
13
Image 6 energy:-0.04649 
C                    -1.71123000          -0.35163000          -0.04562000         
C                    -0.60815000           0.67553000           0.28543000         
C                     0.71061000           0.41056000          -0.38260000         
C                     1.67201000          -0.61921000           0.11415000         
H                    -1.46092000          -1.34251000           0.36618000         
H                    -1.84114000          -0.44779000          -1.13362000         
H                    -2.66477000          -0.02270000           0.39247000         
H                    -0.47256000           0.70153000           1.38758000         
H                    -0.96362000           1.68399000          -0.00715000         
H                     0.84578000           0.78477000          -1.40073000         
H                     1.49953000          -1.61328000          -0.35328000         
H                     1.58483000          -0.76293000           1.20325000         
H                     2.71995000          -0.35329000          -0.11367000         
13
Image 7 energy:-0.04506 
C                    -1.69307000          -0.34565000          -0.05053000         
C                    -0.59851000           0.68787000           0.29926000         
C                     0.69250000           0.39923000          -0.38645000         
C                     1.66521000          -0.61763000           0.11519000         
H                    -1.44965000          -1.35813000           0.35158000         
H                    -1.77871000          -0.43209000          -1.15470000         
H                    -2.68583000          -0.04146000           0.36305000         
H                    -0.48878000           0.66415000           1.37842000         
H                    -0.99482000           1.64540000           0.00142000         
H                     0.81042000           0.75570000          -1.41347000         
H                     1.48881000          -1.62175000          -0.31960000         
H                     1.60786000          -0.73519000           1.20728000         
H                     2.70328000          -0.35103000          -0.14572000         
13
Image 8 energy:-0.04613 
C                    -1.70444000          -0.35548000          -0.05796000         
C                    -0.59816000           0.68949000           0.29870000         
C                     0.69692000           0.40004000          -0.39099000         
C                     1.66317000          -0.61758000           0.12102000         
H                    -1.39594000          -1.35330000           0.29175000         
H                    -1.84913000          -0.41178000          -1.15285000         
H                    -2.67865000          -0.09789000           0.41034000         
H                    -0.42958000           0.70555000           1.40510000         
H                    -0.93628000           1.72199000           0.04190000         
H                     0.81702000           0.74773000          -1.42204000         
H                     1.47643000          -1.62583000          -0.29118000         
H                     1.61297000          -0.71046000           1.21633000         
H                     2.69868000          -0.36281000          -0.15124000         
13
Image 9 energy:-0.04682 
C                    -1.70082000          -0.35288000          -0.05286000         
C                    -0.59905000           0.68435000           0.28766000         
C                     0.70551000           0.40734000          -0.39466000         
C                     1.65899000          -0.61707000           0.12892000         
H                    -1.37014000          -1.36974000           0.19786000         
H                    -1.94044000          -0.33031000          -1.12627000         
H                    -2.62408000          -0.14511000           0.50731000         
H                    -0.45416000           0.67743000           1.38197000         
H                    -0.96827000           1.68492000           0.01858000         
H                     0.83399000           0.75292000          -1.42352000         
H                     1.44772000          -1.63489000          -0.26619000         
H                     1.60233000          -0.69003000           1.22639000         
H                     2.70346000          -0.39478000          -0.14770000         
13
Image 10 energy:-0.04588 
C                    -1.69588000          -0.35325000          -0.05830000         
C                    -0.59966000           0.69511000           0.28875000         
C                     0.69932000           0.39978000          -0.39342000         
C                     1.65787000          -0.61740000           0.13324000         
H                    -1.30251000          -1.37356000           0.11529000         
H                    -1.98779000          -0.27718000          -1.12408000         
H                    -2.60471000          -0.21992000           0.56905000         
H                    -0.43220000           0.72181000           1.40049000         
H                    -0.96928000           1.68158000           0.00690000         
H                     0.81826000           0.71865000          -1.43288000         
H                     1.44383000          -1.63232000          -0.25540000         
H                     1.60277000          -0.69284000           1.22181000         
H                     2.69767000          -0.40547000          -0.14718000         
13
Image 11 energy:-0.04567 
C                    -1.69722000          -0.35306000          -0.05315000         
C                    -0.60148000           0.69320000           0.28970000         
C                     0.69533000           0.39558000          -0.39167000         
C                     1.66287000          -0.61799000           0.12783000         
H                    -1.35169000          -1.37685000           0.17532000         
H                    -1.91089000          -0.30317000          -1.13083000         
H                    -2.63820000          -0.16702000           0.50112000         
H                    -0.49301000           0.66676000           1.37119000         
H                    -0.92741000           1.73470000           0.02500000         
H                     0.81910000           0.73942000          -1.42205000         
H                     1.46271000          -1.64435000          -0.25021000         
H                     1.63479000          -0.67699000           1.23135000         
H                     2.69610000          -0.37424000          -0.17588000         
13
Image 12 energy:-0.04619 
C                    -1.71325000          -0.34103000          -0.05974000         
C                    -0.59641000           0.67301000           0.29924000         
C                     0.69929000           0.39412000          -0.39514000         
C                     1.67385000          -0.60977000           0.12705000         
H                    -1.38755000          -1.34402000           0.22927000         
H                    -1.92589000          -0.35803000          -1.14797000         
H                    -2.65243000          -0.09718000           0.46042000         
H                    -0.44811000           0.67961000           1.39341000         
H                    -0.96898000           1.66981000           0.02407000         
H                     0.80802000           0.73973000          -1.42718000         
H                     1.47171000          -1.64228000          -0.26577000         
H                     1.62922000          -0.67525000           1.24053000         
H                     2.71815000          -0.35752000          -0.16635000         
13
Image 13 energy:-0.04517 
C                    -1.71573000          -0.35179000          -0.04984000         
C                    -0.59949000           0.67891000           0.28905000         
C                     0.70313000           0.39747000          -0.39903000         
C                     1.67350000          -0.60944000           0.12734000         
H                    -1.48273000          -1.40902000           0.23945000         
H                    -1.87476000          -0.33161000          -1.12774000         
H                    -2.62497000          -0.06900000           0.47222000         
H                    -0.42039000           0.69310000           1.39504000         
H                    -0.96425000           1.67853000           0.02470000         
H                     0.83737000           0.75977000          -1.42154000         
H                     1.49450000          -1.62438000          -0.31468000         
H                     1.57548000          -0.71992000           1.22831000         
H                     2.72859000          -0.34850000          -0.10907000         
13
Image 14 energy:-0.04606 
C                    -1.72325000          -0.33967000          -0.04273000         
C                    -0.59808000           0.67310000           0.28218000         
C                     0.70513000           0.39148000          -0.40112000         
C                     1.67912000          -0.60811000           0.12699000         
H                    -1.42171000          -1.34549000           0.27901000         
H                    -1.91683000          -0.37344000          -1.12238000         
H                    -2.69789000          -0.10456000           0.46758000         
H                    -0.44384000           0.65618000           1.37710000         
H                    -0.94917000           1.68872000           0.02494000         
H                     0.86165000           0.77388000          -1.41399000         
H                     1.54911000          -1.60269000          -0.36206000         
H                     1.53606000          -0.76552000           1.21255000         
H                     2.73337000          -0.31788000          -0.04975000         
13
Image 15 energy:-0.04606 
C                    -1.72230000          -0.33945000          -0.04910000         
C                    -0.59706000           0.68081000           0.28923000         
C                     0.69042000           0.37381000          -0.40024000         
C                     1.68653000          -0.60786000           0.12640000         
H                    -1.44080000          -1.35120000           0.26811000         
H                    -1.95643000          -0.38407000          -1.13068000         
H                    -2.62188000          -0.03072000           0.48404000         
H                    -0.45473000           0.67403000           1.37559000         
H                    -0.93843000           1.69310000           0.01506000         
H                     0.83620000           0.75798000          -1.41296000         
H                     1.64295000          -1.58522000          -0.39703000         
H                     1.52655000          -0.80887000           1.19908000         
H                     2.72083000          -0.24276000           0.00013000         
13
Image 16 energy:-0.04510 
C                    -1.75634000          -0.33543000          -0.04204000         
C                    -0.59375000           0.67147000           0.27944000         
C                     0.69961000           0.37042000          -0.39749000         
C                     1.70440000          -0.60726000           0.12622000         
H                    -1.44042000          -1.32537000           0.25812000         
H                    -1.90797000          -0.32503000          -1.11207000         
H                    -2.66276000          -0.04498000           0.48486000         
H                    -0.45162000           0.69011000           1.37066000         
H                    -0.94341000           1.67480000           0.00951000         
H                     0.82056000           0.75448000          -1.41039000         
H                     1.69069000          -1.57948000          -0.40920000         
H                     1.52998000          -0.82592000           1.19318000         
H                     2.72284000          -0.19965000           0.01872000         
13
Image 17 energy:-0.04489 
C                    -1.74849000          -0.32297000          -0.03546000         
C                    -0.60781000           0.65759000           0.26982000         
C                     0.71083000           0.37751000          -0.39594000         
C                     1.71275000          -0.60443000           0.12673000         
H                    -1.54498000          -1.37387000           0.27161000         
H                    -2.02785000          -0.37665000          -1.10908000         
H                    -2.69580000          -0.04606000           0.49918000         
H                    -0.44584000           0.68976000           1.36788000         
H                    -0.93368000           1.67803000          -0.00923000         
H                     0.87598000           0.77968000          -1.39913000         
H                     1.69511000          -1.56307000          -0.43216000         
H                     1.52981000          -0.84739000           1.18553000         
H                     2.74622000          -0.22281000           0.04049000         
13
Image 18 energy:-0.04510 
C                    -1.79737000          -0.33843000          -0.03031000         
C                    -0.60018000           0.65345000           0.25878000         
C                     0.73694000           0.39444000          -0.39200000         
C                     1.72555000          -0.60520000           0.12662000         
H                    -1.55053000          -1.35712000           0.29107000         
H                    -2.04396000          -0.36109000          -1.09855000         
H                    -2.68431000          -0.00365000           0.52514000         
H                    -0.45565000           0.67445000           1.35286000         
H                    -0.93806000           1.66329000          -0.02438000         
H                     0.90834000           0.79589000          -1.39562000         
H                     1.69436000          -1.55717000          -0.44189000         
H                     1.53184000          -0.85603000           1.18139000         
H                     2.76474000          -0.23998000           0.04950000         
13
Image 19 energy:-0.04119 
C                    -1.83969000          -0.36367000          -0.03372000         
C                    -0.57220000           0.67573000           0.26282000         
C                     0.75305000           0.40382000          -0.39146000         
C                     1.73072000          -0.60606000           0.12654000         
H                    -1.59247000          -1.38499000           0.29013000         
H                    -2.08870000          -0.38641000          -1.10432000         
H                    -2.72350000          -0.02148000           0.52661000         
H                    -0.44163000           0.68236000           1.35744000         
H                    -0.92531000           1.67742000          -0.02704000         
H                     0.91848000           0.78855000          -1.40235000         
H                     1.69398000          -1.55341000          -0.44864000         
H                     1.53001000          -0.86063000           1.17879000         
H                     2.77326000          -0.24911000           0.05602000         
13
Image 20 energy:-0.03428 
C                    -1.88046000          -0.39215000          -0.03989000         
C                    -0.53926000           0.70237000           0.26929000         
C                     0.76264000           0.40922000          -0.39111000         
C                     1.73309000          -0.60657000           0.12649000         
H                    -1.61747000          -1.40631000           0.28929000         
H                    -2.11775000          -0.40421000          -1.11207000         
H                    -2.75177000          -0.03424000           0.52768000         
H                    -0.42705000           0.69136000           1.36581000         
H                    -0.91319000           1.69385000          -0.02838000         
H                     0.92254000           0.78247000          -1.40687000         
H                     1.69376000          -1.55087000          -0.45283000         
H                     1.52891000          -0.86304000           1.17740000         
H                     2.77709000          -0.25307000           0.05931000         
13
Image 21 energy:-0.02600 
C                    -1.91951000          -0.42058000          -0.04652000         
C                    -0.50335000           0.73058000           0.27608000         
C                     0.76887000           0.41309000          -0.39038000         
C                     1.73450000          -0.60687000           0.12648000         
H                    -1.63899000          -1.42745000           0.28848000         
H                    -2.14320000          -0.42049000          -1.12098000         
H                    -2.77778000          -0.04576000           0.52885000         
H                    -0.41783000           0.69449000           1.37274000         
H                    -0.90602000           1.70563000          -0.03195000         
H                     0.92446000           0.77777000          -1.40972000         
H                     1.69351000          -1.54841000          -0.45639000         
H                     1.52817000          -0.86488000           1.17638000         
H                     2.77919000          -0.25489000           0.06139000         
13
Image 22 energy:-0.01790 
C                    -1.95820000          -0.44907000          -0.05330000         
C                    -0.46556000           0.75883000           0.28233000         
C                     0.77282000           0.41643000          -0.38900000         
C                     1.73552000          -0.60702000           0.12653000         
H                    -1.65603000          -1.44541000           0.28810000         
H                    -2.16429000          -0.43384000          -1.12927000         
H                    -2.79967000          -0.05470000           0.53036000         
H                    -0.41153000           0.69393000           1.37895000         
H                    -0.90190000           1.71453000          -0.03724000         
H                     0.92515000           0.77413000          -1.41122000         
H                     1.69312000          -1.54560000          -0.45992000         
H                     1.52764000          -0.86663000           1.17549000         
H                     2.78038000          -0.25543000           0.06299000         
13
Image 23 energy:-0.01103 
C                    -1.99618000          -0.47681000          -0.05979000         
C                    -0.42598000           0.78723000           0.28809000         
C                     0.77485000           0.41948000          -0.38705000         
C                     1.73642000          -0.60710000           0.12661000         
H                    -1.67069000          -1.46229000           0.28792000         
H                    -2.18316000          -0.44579000          -1.13765000         
H                    -2.82070000          -0.06318000           0.53193000         
H                    -0.41064000           0.68685000           1.38151000         
H                    -0.90254000           1.71664000          -0.04524000         
H                     0.92542000           0.77173000          -1.41152000         
H                     1.69265000          -1.54255000          -0.46340000         
H                     1.52744000          -0.86830000           1.17475000         
H                     2.78112000          -0.25527000           0.06434000         
13
Image 24 energy:-0.00562 
C                    -2.03440000          -0.50459000          -0.06621000         
C                    -0.38627000           0.81579000           0.29384000         
C                     0.77610000           0.42228000          -0.38504000         
C                     1.73753000          -0.60728000           0.12671000         
H                    -1.68076000          -1.47582000           0.28842000         
H                    -2.19761000          -0.45440000          -1.14537000         
H                    -2.83931000          -0.07005000           0.53375000         
H                    -0.41222000           0.67710000           1.38119000         
H                    -0.90504000           1.71475000          -0.05419000         
H                     0.92627000           0.77050000          -1.41125000         
H                     1.69209000          -1.53967000          -0.46661000         
H                     1.52760000          -0.86989000           1.17412000         
H                     2.78199000          -0.25522000           0.06561000         
13
Image 25 energy:-0.00209 
C                    -2.07315000          -0.53238000          -0.07238000         
C                    -0.34770000           0.84483000           0.30012000         
C                     0.77840000           0.42510000          -0.38347000         
C                     1.73907000          -0.60761000           0.12675000         
H                    -1.69033000          -1.48832000           0.28909000         
H                    -2.21136000          -0.46226000          -1.15245000         
H                    -2.85912000          -0.07819000           0.53514000         
H                    -0.41439000           0.66652000           1.37737000         
H                    -0.90689000           1.70969000          -0.06362000         
H                     0.92891000           0.77008000          -1.41106000         
H                     1.69119000          -1.53703000          -0.46975000         
H                     1.52799000          -0.87151000           1.17346000         
H                     2.78357000          -0.25620000           0.06686000         
13
Image 26 energy:-0.00042 
C                    -2.11359000          -0.56116000          -0.07854000         
C                    -0.31201000           0.87382000           0.30697000         
C                     0.78346000           0.42847000          -0.38262000         
C                     1.74124000          -0.60833000           0.12664000         
H                    -1.70044000          -1.49960000           0.28985000         
H                    -2.22541000          -0.46996000          -1.15831000         
H                    -2.88010000          -0.08766000           0.53603000         
H                    -0.41106000           0.66330000           1.37399000         
H                    -0.90186000           1.70996000          -0.07006000         
H                     0.93402000           0.76995000          -1.41163000         
H                     1.69008000          -1.53516000          -0.47261000         
H                     1.52846000          -0.87303000           1.17268000         
H                     2.78635000          -0.25911000           0.06805000         
13
Image 27 energy:0.00000 
C                    -2.15539000          -0.59071000          -0.08460000         
C                    -0.27874000           0.90220000           0.31369000         
C                     0.79082000           0.43275000          -0.38196000         
C                     1.74402000          -0.60943000           0.12638000         
H                    -1.71246000          -1.51087000           0.29060000         
H                    -2.24052000          -0.47814000          -1.16325000         
H                    -2.90249000          -0.09835000           0.53649000         
H                    -0.40233000           0.66767000           1.37235000         
H                    -0.89033000           1.71679000          -0.07377000         