19
Image 1 energy:-0.04412 
C                     2.22099000          -0.11236000          -0.06943000         
C                     0.91153000           0.27337000          -0.67810000         
C                    -0.42067000           0.04282000          -0.00325000         
C                    -0.76770000          -1.47177000          -0.06099000         
C                    -0.39127000           0.49709000           1.47496000         
C                    -1.51364000           0.83967000          -0.75021000         
H                     3.06408000           0.30308000          -0.64274000         
H                     2.36752000          -1.21385000          -0.04241000         
H                     2.31832000           0.23573000           0.97310000         
H                     0.88974000           0.45410000          -1.75671000         
H                    -0.00072000          -2.06971000           0.45194000         
H                    -0.82833000          -1.81926000          -1.10275000         
H                    -1.73489000          -1.67298000           0.42424000         
H                    -1.37967000           0.35735000           1.93849000         
H                    -0.12385000           1.56239000           1.55051000         
H                     0.33564000          -0.08026000           2.06390000         
H                    -1.58380000           0.52097000          -1.80094000         
H                    -1.29214000           1.91705000          -0.73553000         
H                    -2.49905000           0.68598000          -0.28502000         
19
Image 2 energy:-0.04388 
C                     2.22088000          -0.11482000          -0.06538000         
C                     0.91917000           0.28825000          -0.68122000         
C                    -0.41662000           0.04161000          -0.00921000         
C                    -0.77354000          -1.46871000          -0.05410000         
C                    -0.39320000           0.48765000           1.47098000         
C                    -1.51458000           0.83790000          -0.75098000         
H                     3.07618000           0.27065000          -0.64361000         
H                     2.34382000          -1.21950000          -0.01730000         
H                     2.32120000           0.24838000           0.97004000         
H                     0.90379000           0.48152000          -1.75973000         
H                     0.01274000          -2.07225000           0.42677000         
H                    -0.87311000          -1.81702000          -1.09524000         
H                    -1.71917000          -1.66597000           0.46623000         
H                    -1.37398000           0.31249000           1.93785000         
H                    -0.16197000           1.56285000           1.54787000         
H                     0.35684000          -0.06568000           2.05680000         
H                    -1.61035000           0.49355000          -1.79610000         
H                    -1.28512000           1.91429000          -0.76193000         
H                    -2.49226000           0.70089000          -0.26107000         
19
Image 3 energy:-0.04399 
C                     2.21806000          -0.11734000          -0.06825000         
C                     0.90845000           0.26905000          -0.67680000         
C                    -0.42074000           0.04951000          -0.00142000         
C                    -0.75822000          -1.46820000          -0.06717000         
C                    -0.39123000           0.50188000           1.47545000         
C                    -1.51722000           0.83577000          -0.74873000         
H                     3.06282000           0.30299000          -0.63682000         
H                     2.36666000          -1.22173000          -0.04456000         
H                     2.30910000           0.22463000           0.97645000         
H                     0.88466000           0.44610000          -1.75440000         
H                     0.01239000          -2.06048000           0.44251000         
H                    -0.81953000          -1.81085000          -1.10948000         
H                    -1.72236000          -1.67928000           0.42156000         
H                    -1.37879000           0.35983000           1.93197000         
H                    -0.12529000           1.56020000           1.55797000         
H                     0.33178000          -0.08265000           2.06326000         
H                    -1.59204000           0.51794000          -1.79732000         
H                    -1.29136000           1.91523000          -0.73779000         
H                    -2.50366000           0.68677000          -0.27845000         
19
Image 4 energy:-0.04391 
C                     2.22836000          -0.10649000          -0.07548000         
C                     0.91228000           0.27309000          -0.67570000         
C                    -0.42182000           0.04036000          -0.00132000         
C                    -0.77516000          -1.47215000          -0.05491000         
C                    -0.39291000           0.49261000           1.47650000         
C                    -1.51100000           0.84078000          -0.75276000         
H                     3.06676000           0.35365000          -0.63238000         
H                     2.39920000          -1.21018000          -0.09423000         
H                     2.31303000           0.20514000           0.98457000         
H                     0.88879000           0.45739000          -1.75611000         
H                    -0.03807000          -2.07519000           0.49031000         
H                    -0.79833000          -1.82872000          -1.09577000         
H                    -1.76886000          -1.65790000           0.38237000         
H                    -1.38886000           0.38682000           1.93967000         
H                    -0.09372000           1.55354000           1.54669000         
H                     0.31860000          -0.09873000           2.06974000         
H                    -1.57239000           0.50893000          -1.80337000         
H                    -1.30422000           1.91966000          -0.74533000         
H                    -2.49528000           0.67366000          -0.28994000         
19
Image 5 energy:-0.04385 
C                     2.23083000          -0.10554000          -0.07929000         
C                     0.91374000           0.26996000          -0.67637000         
C                    -0.41760000           0.04231000           0.00252000         
C                    -0.78549000          -1.47144000          -0.06009000         
C                    -0.39091000           0.50545000           1.47922000         
C                    -1.51008000           0.82733000          -0.75109000         
H                     3.06337000           0.41841000          -0.57623000         
H                     2.44193000          -1.19214000          -0.17856000         
H                     2.28340000           0.12231000           0.99529000         
H                     0.88421000           0.44026000          -1.75377000         
H                    -0.05152000          -2.07408000           0.50846000         
H                    -0.79184000          -1.83051000          -1.10083000         
H                    -1.78212000          -1.64863000           0.38195000         
H                    -1.38780000           0.40116000           1.92490000         
H                    -0.09105000           1.55468000           1.56160000         
H                     0.30430000          -0.09511000           2.08144000         
H                    -1.54616000           0.53353000          -1.80973000         
H                    -1.30495000           1.91177000          -0.71375000         
H                    -2.50381000           0.64800000          -0.30747000         
19
Image 6 energy:-0.04390 
C                     2.22634000          -0.11026000          -0.07761000         
C                     0.91046000           0.26658000          -0.67905000         
C                    -0.42436000           0.04088000          -0.00588000         
C                    -0.76896000          -1.47225000          -0.04166000         
C                    -0.39776000           0.49510000           1.47222000         
C                    -1.50805000           0.84508000          -0.75584000         
H                     3.04790000           0.45043000          -0.54412000         
H                     2.46637000          -1.18186000          -0.21734000         
H                     2.26522000           0.07899000           1.00297000         
H                     0.89016000           0.45748000          -1.75827000         
H                    -0.00095000          -2.06158000           0.48036000         
H                    -0.83765000          -1.84092000          -1.07553000         
H                    -1.73666000          -1.65778000           0.45489000         
H                    -1.39999000           0.40665000           1.91918000         
H                    -0.07893000           1.54803000           1.54339000         
H                     0.28836000          -0.11272000           2.07978000         
H                    -1.54347000           0.56081000          -1.82061000         
H                    -1.30840000           1.92116000          -0.69333000         
H                    -2.50031000           0.65568000          -0.32566000         
19
Image 7 energy:-0.04372 
C                     2.22955000          -0.11056000          -0.07291000         
C                     0.91649000           0.27372000          -0.67685000         
C                    -0.41879000           0.04297000          -0.00263000         
C                    -0.77976000          -1.47281000          -0.04760000         
C                    -0.39437000           0.50332000           1.47325000         
C                    -1.51185000           0.83242000          -0.75868000         
H                     3.06363000           0.45429000          -0.52165000         
H                     2.46029000          -1.18584000          -0.23402000         
H                     2.25796000           0.05366000           1.01521000         
H                     0.89937000           0.45041000          -1.75683000         
H                     0.02724000          -2.07304000           0.38725000         
H                    -0.94557000          -1.81091000          -1.08492000         
H                    -1.70435000          -1.66997000           0.52105000         
H                    -1.39252000           0.38777000           1.92073000         
H                    -0.10124000           1.55705000           1.55969000         
H                     0.30726000          -0.09790000           2.06883000         
H                    -1.55015000           0.53917000          -1.81393000         
H                    -1.30457000           1.91615000          -0.72275000         
H                    -2.50883000           0.65683000          -0.32167000         
19
Image 8 energy:-0.04276 
C                     2.22494000          -0.11400000          -0.06800000         
C                     0.91429000           0.27102000          -0.67744000         
C                    -0.42199000           0.04520000          -0.00469000         
C                    -0.76979000          -1.46858000          -0.05169000         
C                    -0.39170000           0.50480000           1.47298000         
C                    -1.51484000           0.83171000          -0.75547000         
H                     3.06277000           0.42392000          -0.53558000         
H                     2.44257000          -1.19426000          -0.19246000         
H                     2.26081000           0.08265000           1.01123000         
H                     0.89722000           0.45027000          -1.75676000         
H                     0.01347000          -2.14306000           0.37447000         
H                    -0.90929000          -1.72781000          -1.10094000         
H                    -1.70067000          -1.66974000           0.50307000         
H                    -1.38563000           0.38700000           1.93119000         
H                    -0.10508000           1.56261000           1.54728000         
H                     0.32038000          -0.08461000           2.06734000         
H                    -1.57324000           0.50710000          -1.80427000         
H                    -1.31370000           1.91222000          -0.74869000         
H                    -2.49666000           0.65844000          -0.29210000         
19
Image 9 energy:-0.04368 
C                     2.22452000          -0.10797000          -0.06842000         
C                     0.91194000           0.26370000          -0.67812000         
C                    -0.41935000           0.04517000          -0.00020000         
C                    -0.77718000          -1.46750000          -0.06421000         
C                    -0.39069000           0.50110000           1.47531000         
C                    -1.50949000           0.83429000          -0.75044000         
H                     3.05532000           0.41069000          -0.56250000         
H                     2.44102000          -1.18960000          -0.15447000         
H                     2.27250000           0.12898000           1.00041000         
H                     0.88846000           0.44250000          -1.75773000         
H                     0.01502000          -2.05257000           0.41493000         
H                    -0.88529000          -1.83001000          -1.10053000         
H                    -1.72649000          -1.67202000           0.46420000         
H                    -1.38538000           0.39282000           1.93464000         
H                    -0.09787000           1.56159000           1.53729000         
H                     0.31890000          -0.08391000           2.07764000         
H                    -1.57389000           0.49804000          -1.80305000         
H                    -1.30799000           1.91007000          -0.74464000         
H                    -2.48767000           0.66433000          -0.28126000         
19
Image 10 energy:-0.04375 
C                     2.22896000          -0.09407000          -0.07189000         
C                     0.91035000           0.25881000          -0.68091000         
C                    -0.42364000           0.03579000          -0.00237000         
C                    -0.77994000          -1.47640000          -0.05370000         
C                    -0.38964000           0.49443000           1.47429000         
C                    -1.50750000           0.84417000          -0.75263000         
H                     3.06154000           0.40704000          -0.60074000         
H                     2.43638000          -1.19164000          -0.12373000         
H                     2.28635000           0.18459000           0.99733000         
H                     0.88729000           0.42868000          -1.76167000         
H                    -0.02828000          -2.08551000           0.46895000         
H                    -0.84246000          -1.82985000          -1.09255000         
H                    -1.75180000          -1.64758000           0.42909000         
H                    -1.38497000           0.39954000           1.92007000         
H                    -0.07760000           1.54182000           1.55211000         
H                     0.29925000          -0.11055000           2.07857000         
H                    -1.55134000           0.54575000          -1.81540000         
H                    -1.28151000           1.93203000          -0.70786000         
H                    -2.51237000           0.67886000          -0.30573000         
19
Image 11 energy:-0.04300 
C                     2.23505000          -0.08804000          -0.07454000         
C                     0.91516000           0.25837000          -0.68324000         
C                    -0.41597000           0.03812000          -0.00523000         
C                    -0.79792000          -1.47042000          -0.04537000         
C                    -0.38789000           0.49095000           1.47478000         
C                    -1.50659000           0.83573000          -0.75400000         
H                     3.06941000           0.43135000          -0.59222000         
H                     2.45216000          -1.18811000          -0.14765000         
H                     2.28009000           0.16982000           1.00264000         
H                     0.89133000           0.42219000          -1.76470000         
H                    -0.04725000          -2.05506000           0.49284000         
H                    -0.83260000          -1.79894000          -1.08683000         
H                    -1.79829000          -1.69126000           0.41574000         
H                    -1.39179000           0.41979000           1.91487000         
H                    -0.04815000           1.53244000           1.55997000         
H                     0.28171000          -0.13561000           2.08172000         
H                    -1.53057000           0.58214000          -1.82239000         
H                    -1.32204000           1.91508000          -0.67048000         
H                    -2.50218000           0.62564000          -0.34056000         
19
Image 12 energy:-0.04318 
C                     2.23586000          -0.08681000          -0.07584000         
C                     0.91197000           0.25229000          -0.68072000         
C                    -0.42232000           0.03743000           0.00014000         
C                    -0.79275000          -1.47383000          -0.05192000         
C                    -0.38806000           0.49578000           1.47654000         
C                    -1.50355000           0.83924000          -0.75479000         
H                     3.05268000           0.48789000          -0.55714000         
H                     2.49497000          -1.16763000          -0.20533000         
H                     2.26645000           0.11801000           1.01052000         
H                     0.88505000           0.41281000          -1.76182000         
H                    -0.06155000          -2.09857000           0.49401000         
H                    -0.85587000          -1.86532000          -1.08577000         
H                    -1.76890000          -1.58705000           0.42264000         
H                    -1.39575000           0.42740000           1.91880000         
H                    -0.04422000           1.53765000           1.56225000         
H                     0.28107000          -0.13741000           2.07844000         
H                    -1.52676000           0.56607000          -1.81895000         
H                    -1.32514000           1.91319000          -0.68861000         
H                    -2.49199000           0.62980000          -0.33782000         
19
Image 13 energy:-0.04369 
C                     2.24051000          -0.07971000          -0.07840000         
C                     0.91075000           0.24099000          -0.67972000         
C                    -0.42252000           0.03252000           0.00040000         
C                    -0.80327000          -1.47342000          -0.04372000         
C                    -0.39139000           0.49490000           1.47282000         
C                    -1.49588000           0.84411000          -0.75559000         
H                     3.03046000           0.55610000          -0.51230000         
H                     2.55117000          -1.13000000          -0.26769000         
H                     2.25585000           0.06158000           1.01310000         
H                     0.88235000           0.40728000          -1.76099000         
H                    -0.04962000          -2.08471000           0.48250000         
H                    -0.86568000          -1.83046000          -1.08563000         
H                    -1.78755000          -1.65435000           0.43995000         
H                    -1.39663000           0.41297000           1.91940000         
H                    -0.06421000           1.54219000           1.54616000         
H                     0.29121000          -0.12415000           2.07407000         
H                    -1.51789000           0.54897000          -1.82166000         
H                    -1.28450000           1.92757000          -0.69837000         
H                    -2.49998000           0.65997000          -0.32589000         
19
Image 14 energy:-0.04095 
C                     2.24331000          -0.07775000          -0.07842000         
C                     0.90946000           0.23985000          -0.67804000         
C                    -0.41941000           0.03328000          -0.00260000         
C                    -0.81377000          -1.48970000          -0.03850000         
C                    -0.39298000           0.49209000           1.46953000         
C                    -1.49387000           0.84329000          -0.75646000         
H                     3.02572000           0.57258000          -0.50067000         
H                     2.56420000          -1.12161000          -0.28269000         
H                     2.25521000           0.04501000           1.01465000         
H                     0.87992000           0.40686000          -1.75962000         
H                    -0.02766000          -2.02851000           0.46562000         
H                    -0.88322000          -1.77049000          -1.07859000         
H                    -1.75968000          -1.58734000           0.46867000         
H                    -1.39129000           0.39787000           1.93074000         
H                    -0.08632000           1.54818000           1.50683000         
H                     0.30853000          -0.10095000           2.07396000         
H                    -1.49026000           0.58927000          -1.82930000         
H                    -1.27734000           1.91759000          -0.64342000         
H                    -2.50766000           0.64280000          -0.36004000         
19
Image 15 energy:-0.04318 
C                     2.24592000          -0.07666000          -0.07906000         
C                     0.91432000           0.24309000          -0.68058000         
C                    -0.42350000           0.02173000          -0.00285000         
C                    -0.81223000          -1.47561000          -0.03544000         
C                    -0.39087000           0.49818000           1.47082000         
C                    -1.49320000           0.85023000          -0.75914000         
H                     3.03503000           0.57809000          -0.48439000         
H                     2.56574000          -1.11634000          -0.30156000         
H                     2.25355000           0.02783000           1.01538000         
H                     0.89025000           0.38216000          -1.76660000         
H                    -0.05505000          -2.11367000           0.45741000         
H                    -0.93139000          -1.85726000          -1.06636000         
H                    -1.77285000          -1.65806000           0.48769000         
H                    -1.38249000           0.36980000           1.93193000         
H                    -0.11761000           1.56107000           1.53792000         
H                     0.32848000          -0.07787000           2.06965000         
H                    -1.46206000           0.63981000          -1.83955000         
H                    -1.32810000           1.92932000          -0.61934000         
H                    -2.50503000           0.60933000          -0.39522000         
19
Image 16 energy:-0.04179 
C                     2.24928000          -0.07452000          -0.07915000         
C                     0.91982000           0.25286000          -0.68319000         
C                    -0.41611000           0.03749000          -0.00522000         
C                    -0.82831000          -1.52374000          -0.03240000         
C                    -0.38823000           0.50697000           1.47547000         
C                    -1.49401000           0.86319000          -0.76323000         
H                     3.04282000           0.58074000          -0.47482000         
H                     2.56573000          -1.11302000          -0.31050000         
H                     2.25236000           0.01992000           1.01591000         
H                     0.89722000           0.37264000          -1.77167000         
H                    -0.05645000          -2.13335000           0.45587000         
H                    -0.94960000          -1.87519000          -1.06560000         
H                    -1.77877000          -1.67053000           0.50147000         
H                    -1.37769000           0.35771000           1.93510000         
H                    -0.13160000           1.57467000           1.55413000         
H                     0.33823000          -0.06452000           2.07074000         
H                    -1.45072000           0.66900000          -1.84588000         
H                    -1.35242000           1.94386000          -0.60626000         
H                    -2.50438000           0.59673000          -0.41399000         
19
Image 17 energy:-0.03747 
C                     2.25044000          -0.07391000          -0.07915000         
C                     0.92415000           0.25869000          -0.68533000         
C                    -0.40594000           0.06649000          -0.00609000         
C                    -0.84070000          -1.56624000          -0.03156000         
C                    -0.38597000           0.51447000           1.47967000         
C                    -1.49490000           0.87310000          -0.76618000         
H                     3.04603000           0.58191000          -0.47011000         
H                     2.56511000          -1.11145000          -0.31617000         
H                     2.25145000           0.01555000           1.01611000         
H                     0.90070000           0.35985000          -1.77535000         
H                    -0.06541000          -2.17469000           0.45628000         
H                    -0.96616000          -1.91554000          -1.06669000         
H                    -1.79111000          -1.70377000           0.50778000         
H                    -1.37601000           0.34534000           1.92980000         
H                    -0.14110000           1.58305000           1.58527000         
H                     0.34231000          -0.06278000           2.06668000         
H                    -1.44449000           0.67912000          -1.84837000         
H                    -1.38361000           1.95784000          -0.61059000         
H                    -2.49820000           0.58110000          -0.41918000         
19
Image 18 energy:-0.03123 
C                     2.25070000          -0.07367000          -0.07908000         
C                     0.92660000           0.26220000          -0.68645000         
C                    -0.39403000           0.10093000          -0.00687000         
C                    -0.85273000          -1.60922000          -0.03125000         
C                    -0.38422000           0.52006000           1.48272000         
C                    -1.49548000           0.88043000          -0.76835000         
H                     3.04694000           0.58313000          -0.46746000         
H                     2.56461000          -1.11020000          -0.32032000         
H                     2.25095000           0.01268000           1.01623000         
H                     0.90198000           0.35026000          -1.77730000         
H                    -0.07036000          -2.20537000           0.45775000         
H                    -0.97735000          -1.94485000          -1.06972000         
H                    -1.80166000          -1.72728000           0.51258000         
H                    -1.37535000           0.33529000           1.92311000         
H                    -0.14831000           1.58844000           1.61240000         
H                     0.34476000          -0.06328000           2.06219000         
H                    -1.44011000           0.68413000          -1.84963000         
H                    -1.40994000           1.96840000          -0.61654000         
H                    -2.49157000           0.56760000          -0.42043000         
19
Image 19 energy:-0.02410 
C                     2.25054000          -0.07357000          -0.07899000         
C                     0.92777000           0.26425000          -0.68684000         
C                    -0.38098000           0.13819000          -0.00776000         
C                    -0.86428000          -1.65089000          -0.03108000         
C                    -0.38272000           0.52442000           1.48506000         
C                    -1.49583000           0.88619000          -0.77014000         
H                     3.04654000           0.58466000          -0.46575000         
H                     2.56413000          -1.10895000          -0.32416000         