16
Image 1 energy:-0.03873 
C                    -1.62525000          -1.02757000          -0.03599000         
C                    -0.52153000          -0.08167000           0.31469000         
C                     0.82002000          -0.56312000          -0.32084000         
C                     2.06012000           0.20230000           0.16515000         
C                    -0.86966000           1.36112000          -0.09696000         
H                    -1.68553000          -2.00905000           0.43637000         
H                    -2.26043000          -0.84570000          -0.90529000         
H                    -0.37307000          -0.10408000           1.41160000         
H                     0.73379000          -0.48550000          -1.41881000         
H                     0.94404000          -1.63484000          -0.09341000         
H                     2.13889000           0.16333000           1.26344000         
H                     2.03285000           1.26009000          -0.13102000         
H                     2.97789000          -0.23458000          -0.25307000         
H                    -0.07583000           2.06880000           0.18673000         
H                    -1.80115000           1.69210000           0.38065000         
H                    -1.00853000           1.42662000          -1.18743000         
16
Image 2 energy:-0.03850 
C                    -1.62969000          -1.02628000          -0.02690000         
C                    -0.51656000          -0.08408000           0.31498000         
C                     0.82223000          -0.55468000          -0.33408000         
C                     2.05681000           0.20055000           0.17445000         
C                    -0.86957000           1.35542000          -0.10272000         
H                    -1.70991000          -1.99561000           0.47358000         
H                    -2.23728000          -0.86733000          -0.92670000         
H                    -0.35751000          -0.10699000           1.40758000         
H                     0.73981000          -0.45126000          -1.42933000         
H                     0.94521000          -1.63106000          -0.13300000         
H                     2.12521000           0.12969000           1.27422000         
H                     2.02683000           1.26721000          -0.09046000         
H                     2.97950000          -0.22725000          -0.24253000         
H                    -0.05675000           2.06857000           0.14813000         
H                    -1.77634000           1.70669000           0.40131000         
H                    -1.05017000           1.40609000          -1.18919000         
16
Image 3 energy:-0.03833 
C                    -1.63266000          -1.02755000          -0.03938000         
C                    -0.52126000          -0.08719000           0.31341000         
C                     0.82397000          -0.57089000          -0.31691000         
C                     2.05581000           0.21431000           0.16147000         
C                    -0.86006000           1.36252000          -0.09231000         
H                    -1.70099000          -2.00599000           0.44002000         
H                    -2.26931000          -0.84213000          -0.90799000         
H                    -0.37847000          -0.11078000           1.41215000         
H                     0.73557000          -0.49721000          -1.41782000         
H                     0.95243000          -1.64240000          -0.08419000         
H                     2.13995000           0.16848000           1.25611000         
H                     2.02093000           1.27144000          -0.13454000         
H                     2.97651000          -0.22308000          -0.24850000         
H                    -0.06838000           2.05487000           0.16398000         
H                    -1.80434000           1.68680000           0.39417000         
H                    -1.00597000           1.43539000          -1.18642000         
16
Image 4 energy:-0.03841 
C                    -1.63670000          -1.02067000          -0.05372000         
C                    -0.52675000          -0.09174000           0.32141000         
C                     0.82286000          -0.57622000          -0.29798000         
C                     2.06221000           0.22299000           0.14838000         
C                    -0.85712000           1.35131000          -0.09233000         
H                    -1.71852000          -2.00875000           0.40336000         
H                    -2.29322000          -0.79202000          -0.88960000         
H                    -0.39502000          -0.11940000           1.42237000         
H                     0.72822000          -0.52520000          -1.39982000         
H                     0.96386000          -1.64396000          -0.04605000         
H                     2.17629000           0.20236000           1.24641000         
H                     2.01149000           1.27774000          -0.16266000         
H                     2.97575000          -0.20088000          -0.29448000         
H                    -0.07652000           2.07297000           0.23627000         
H                    -1.79330000           1.67590000           0.36353000         
H                    -0.96565000           1.42249000          -1.18598000         
16
Image 5 energy:-0.03837 
C                    -1.64138000          -1.01523000          -0.06266000         
C                    -0.52208000          -0.09847000           0.32502000         
C                     0.82591000          -0.58836000          -0.28590000         
C                     2.05163000           0.23448000           0.13783000         
C                    -0.84517000           1.35178000          -0.08406000         
H                    -1.71623000          -2.02563000           0.35491000         
H                    -2.32127000          -0.73987000          -0.87131000         
H                    -0.39599000          -0.13386000           1.42603000         
H                     0.73370000          -0.56575000          -1.38691000         
H                     0.96698000          -1.64545000          -0.01006000         
H                     2.17113000           0.25164000           1.23803000         
H                     1.97064000           1.27816000          -0.21015000         
H                     2.97550000          -0.18206000          -0.30069000         
H                    -0.07818000           2.05366000           0.24924000         
H                    -1.82777000           1.66462000           0.33484000         
H                    -0.91773000           1.42333000          -1.18378000         
16
Image 6 energy:-0.03830 
C                    -1.63801000          -1.02177000          -0.06127000         
C                    -0.52608000          -0.09743000           0.31852000         
C                     0.82510000          -0.59494000          -0.28672000         
C                     2.04243000           0.23995000           0.13389000         
C                    -0.83864000           1.35707000          -0.07823000         
H                    -1.67388000          -2.04757000           0.31911000         
H                    -2.34759000          -0.74161000          -0.84549000         
H                    -0.40108000          -0.13237000           1.42246000         
H                     0.73265000          -0.58865000          -1.38485000         
H                     0.96856000          -1.64637000           0.01378000         
H                     2.12310000           0.31187000           1.23020000         
H                     1.98039000           1.26132000          -0.27220000         
H                     2.97355000          -0.21944000          -0.24408000         
H                    -0.08429000           2.06056000           0.29341000         
H                    -1.78822000           1.66613000           0.33732000         
H                    -0.87341000           1.47060000          -1.18151000         
16
Image 7 energy:-0.03829 
C                    -1.63761000          -1.02671000          -0.05936000         
C                    -0.52909000          -0.09599000           0.31772000         
C                     0.81688000          -0.59203000          -0.28956000         
C                     2.04008000           0.24045000           0.12727000         
C                    -0.82815000           1.36178000          -0.07295000         
H                    -1.61726000          -2.05851000           0.28812000         
H                    -2.37481000          -0.77290000          -0.81730000         
H                    -0.39675000          -0.13424000           1.41610000         
H                     0.72968000          -0.60428000          -1.38941000         
H                     0.97194000          -1.64031000           0.01562000         
H                     2.07170000           0.36038000           1.22389000         
H                     2.03639000           1.24461000          -0.31427000         
H                     2.97339000          -0.24992000          -0.17477000         
H                    -0.08979000           2.05693000           0.35596000         
H                    -1.83813000           1.66347000           0.27912000         
H                    -0.82445000           1.47413000          -1.15843000         
16
Image 8 energy:-0.03781 
C                    -1.63955000          -1.02311000          -0.06772000         
C                    -0.52944000          -0.09964000           0.32036000         
C                     0.82111000          -0.60070000          -0.27664000         
C                     2.03569000           0.24973000           0.11239000         
C                    -0.82954000           1.36070000          -0.06311000         
H                    -1.59162000          -2.07158000           0.23253000         
H                    -2.39326000          -0.73893000          -0.81123000         
H                    -0.41031000          -0.14345000           1.42173000         
H                     0.72099000          -0.65205000          -1.37295000         
H                     0.97648000          -1.63336000           0.06445000         
H                     2.03941000           0.41007000           1.19798000         
H                     2.04959000           1.23802000          -0.37282000         
H                     2.97579000          -0.26961000          -0.14624000         
H                    -0.09653000           2.04276000           0.38927000         
H                    -1.82217000           1.66725000           0.27306000         
H                    -0.76083000           1.49660000          -1.17679000         
16
Image 9 energy:-0.03766 
C                    -1.64019000          -1.01521000          -0.08264000         
C                    -0.53009000          -0.10290000           0.32887000         
C                     0.82308000          -0.61182000          -0.26106000         
C                     2.03233000           0.25491000           0.10182000         
C                    -0.82038000           1.35816000          -0.06127000         
H                    -1.61096000          -2.07251000           0.20755000         
H                    -2.37013000          -0.71034000          -0.83462000         
H                    -0.42435000          -0.15407000           1.43141000         
H                     0.71485000          -0.67782000          -1.35024000         
H                     0.98669000          -1.63780000           0.10096000         
H                     2.06307000           0.44972000           1.20772000         
H                     1.99693000           1.24773000          -0.40320000         
H                     2.97169000          -0.24243000          -0.18911000         
H                    -0.09471000           2.05053000           0.38020000         
H                    -1.82092000           1.65879000           0.27971000         
H                    -0.80171000           1.47957000          -1.13667000         
16
Image 10 energy:-0.03817 
C                    -1.64318000          -1.01236000          -0.08284000         
C                    -0.52913000          -0.10455000           0.32889000         
C                     0.82481000          -0.61057000          -0.25777000         
C                     2.03763000           0.25812000           0.10595000         
C                    -0.82531000           1.35392000          -0.06574000         
H                    -1.66468000          -2.05640000           0.23878000         
H                    -2.35667000          -0.70079000          -0.84314000         
H                    -0.42308000          -0.14505000           1.43166000         
H                     0.73081000          -0.68600000          -1.35971000         
H                     0.98892000          -1.64415000           0.11318000         
H                     2.12927000           0.36923000           1.18741000         
H                     1.94844000           1.25674000          -0.32977000         
H                     2.97136000          -0.19941000          -0.26942000         
H                    -0.09390000           2.05228000           0.38283000         
H                    -1.83341000           1.65034000           0.27667000         
H                    -0.78738000           1.47758000          -1.16770000         
16
Image 11 energy:-0.03810 
C                    -1.64708000          -1.01034000          -0.07684000         
C                    -0.52328000          -0.10279000           0.32207000         
C                     0.83091000          -0.61170000          -0.26504000         
C                     2.04510000           0.24994000           0.11978000         
C                    -0.84000000           1.35395000          -0.06987000         
H                    -1.69800000          -2.04222000           0.27265000         
H                    -2.36439000          -0.70375000          -0.84527000         
H                    -0.41074000          -0.14403000           1.42294000         
H                     0.75102000          -0.64562000          -1.36335000         
H                     0.97945000          -1.64741000           0.06536000         
H                     2.17161000           0.35615000           1.22059000         
H                     1.96200000           1.26807000          -0.31242000         
H                     2.96886000          -0.17255000          -0.28550000         
H                    -0.09556000           2.05641000           0.32767000         
H                    -1.82154000           1.65977000           0.31075000         
H                    -0.84309000           1.45518000          -1.17185000         
16
Image 12 energy:-0.03849 
C                    -1.64672000          -1.01879000          -0.06353000         
C                    -0.52901000          -0.10010000           0.32112000         
C                     0.82420000          -0.59126000          -0.28237000         
C                     2.04936000           0.24531000           0.12957000         
C                    -0.83400000           1.35240000          -0.07830000         
H                    -1.67299000          -2.04737000           0.29948000         
H                    -2.35448000          -0.74232000          -0.84996000         
H                    -0.40991000          -0.14190000           1.42646000         
H                     0.72370000          -0.61025000          -1.38282000         
H                     0.98397000          -1.64207000           0.03579000         
H                     2.13205000           0.31231000           1.21824000         
H                     2.00747000           1.26396000          -0.26339000         
H                     2.97483000          -0.21530000          -0.25178000         
H                    -0.08270000           2.04892000           0.31114000         
H                    -1.81588000           1.65964000           0.31002000         
H                    -0.86473000           1.45319000          -1.16853000         
16
Image 13 energy:-0.03853 
C                    -1.63555000          -1.02393000          -0.05230000         
C                    -0.52491000          -0.09311000           0.31460000         
C                     0.81765000          -0.58246000          -0.29297000         
C                     2.05244000           0.22704000           0.14010000         
C                    -0.84765000           1.35953000          -0.08147000         
H                    -1.63987000          -2.04986000           0.32119000         
H                    -2.34010000          -0.76991000          -0.84591000         
H                    -0.38833000          -0.12646000           1.41105000         
H                     0.73674000          -0.57578000          -1.39322000         
H                     0.95901000          -1.63627000          -0.01333000         
H                     2.11142000           0.30108000           1.24211000         
H                     2.01414000           1.25603000          -0.26607000         
H                     2.98482000          -0.24142000          -0.22748000         
H                    -0.09376000           2.05543000           0.30766000         
H                    -1.82765000           1.66050000           0.31417000         
H                    -0.87312000           1.47120000          -1.18311000         
16
Image 14 energy:-0.03799 
C                    -1.63127000          -1.02042000          -0.04335000         
C                    -0.52365000          -0.08325000           0.31524000         
C                     0.83507000          -0.59125000          -0.31533000         
C                     2.05019000           0.21703000           0.14999000         
C                    -0.86104000           1.36380000          -0.08656000         
H                    -1.64684000          -2.04192000           0.34555000         
H                    -2.32395000          -0.77923000          -0.85082000         
H                    -0.40037000          -0.10935000           1.43188000         
H                     0.73559000          -0.56735000          -1.40496000         
H                     0.95474000          -1.64558000          -0.01881000         
H                     2.11623000           0.25153000           1.24926000         
H                     1.99460000           1.25172000          -0.21156000         
H                     2.98594000          -0.20790000          -0.21525000         
H                    -0.10259000           2.08139000           0.28768000         
H                    -1.84106000           1.65933000           0.33447000         
H                    -0.91605000           1.46597000          -1.18529000         
16
Image 15 energy:-0.03819 
C                    -1.62834000          -1.02397000          -0.03968000         
C                    -0.51595000          -0.08557000           0.30875000         
C                     0.81678000          -0.56911000          -0.30991000         
C                     2.06085000           0.20958000           0.15712000         
C                    -0.86955000           1.36137000          -0.09111000         
H                    -1.65197000          -2.03461000           0.37182000         
H                    -2.32060000          -0.78994000          -0.85539000         
H                    -0.34623000          -0.11955000           1.38949000         
H                     0.73858000          -0.54087000          -1.42474000         
H                     0.95074000          -1.63785000          -0.04287000         
H                     2.11525000           0.21190000           1.25788000         
H                     2.03973000           1.25607000          -0.17279000         
H                     2.98016000          -0.24593000          -0.22446000         
H                    -0.10468000           2.07163000           0.23685000         
H                    -1.82172000           1.66905000           0.34749000         
H                    -0.95750000           1.44249000          -1.18304000         
16
Image 16 energy:-0.03832 
C                    -1.63026000          -1.02697000          -0.02738000         
C                    -0.52176000          -0.08214000           0.31381000         
C                     0.82622000          -0.55839000          -0.32949000         
C                     2.06204000           0.20086000           0.17042000         
C                    -0.87141000           1.35872000          -0.10034000         
H                    -1.66610000          -2.02568000           0.40858000         
H                    -2.29967000          -0.82212000          -0.86632000         
H                    -0.38009000          -0.10097000           1.41841000         
H                     0.73766000          -0.47080000          -1.41884000         
H                     0.95204000          -1.63112000          -0.11123000         
H                     2.12959000           0.16992000           1.27374000         
H                     2.05575000           1.26793000          -0.14508000         
H                     2.98124000          -0.27066000          -0.24752000         
H                    -0.10216000           2.07516000           0.22138000         
H                    -1.83295000           1.66414000           0.34327000         
H                    -0.96597000           1.42924000          -1.19794000         
16
Image 17 energy:-0.03841 
C                    -1.63047000          -1.02963000          -0.01411000         
C                    -0.51745000          -0.07797000           0.30389000         
C                     0.82002000          -0.54938000          -0.33445000         
C                     2.06659000           0.18887000           0.18148000         
C                    -0.87695000           1.36065000          -0.10978000         
H                    -1.64933000          -2.02876000           0.42508000         
H                    -2.28902000          -0.84503000          -0.86597000         
H                    -0.34743000          -0.10051000           1.39584000         
H                     0.74874000          -0.44555000          -1.43064000         
H                     0.94093000          -1.62988000          -0.13987000         
H                     2.15988000           0.09922000           1.27529000         
H                     2.02698000           1.25567000          -0.06463000         
H                     2.98183000          -0.21044000          -0.26407000         
H                    -0.09454000           2.08489000           0.19551000         
H                    -1.83132000           1.67114000           0.35939000         
H                    -1.00061000           1.42882000          -1.20784000         
16
Image 18 energy:-0.03808 
C                    -1.61475000          -1.03168000          -0.00995000         
C                    -0.51986000          -0.06895000           0.30948000         
C                     0.82235000          -0.54219000          -0.35221000         
C                     2.06832000           0.17513000           0.19157000         
C                    -0.89188000           1.36291000          -0.11295000         
H                    -1.63071000          -2.02668000           0.43987000         
H                    -2.26351000          -0.85923000          -0.87237000         
H                    -0.35342000          -0.07803000           1.41119000         
H                     0.74984000          -0.42897000          -1.45522000         
H                     0.90270000          -1.62000000          -0.15018000         
H                     2.13753000           0.06749000           1.28831000         
H                     2.05409000           1.25220000          -0.03936000         
H                     2.98425000          -0.24034000          -0.24773000         
H                    -0.10277000           2.07027000           0.13186000         
H                    -1.80121000           1.69597000           0.37967000         
H                    -1.05957000           1.41499000          -1.19500000         
16
Image 19 energy:-0.03797 
C                    -1.61108000          -1.03282000           0.00308000         
C                    -0.51238000          -0.06188000           0.29663000         
C                     0.82178000          -0.53891000          -0.36042000         
C                     2.07018000           0.16261000           0.20386000         
C                    -0.90587000           1.36815000          -0.11873000         
H                    -1.62029000          -2.01901000           0.47219000         
H                    -2.27114000          -0.87832000          -0.85482000         
H                    -0.32291000          -0.06890000           1.38799000         
H                     0.72066000          -0.37801000          -1.43806000         
H                     0.95598000          -1.63370000          -0.21642000         
H                     2.13527000           0.02277000           1.29767000         
H                     2.06561000           1.24718000           0.00564000         
H                     2.98643000          -0.25710000          -0.24490000         
H                    -0.11752000           2.09207000           0.13588000         
H                    -1.83401000           1.68781000           0.37539000         
H                    -1.06256000           1.40998000          -1.21139000         
16
Image 20 energy:-0.03759 
C                    -1.61196000          -1.03808000           0.01484000         
C                    -0.51670000          -0.06370000           0.29783000         
C                     0.82263000          -0.51930000          -0.37582000         
C                     2.07157000           0.15437000           0.21388000         
C                    -0.90062000           1.36450000          -0.12866000         
H                    -1.62793000          -2.01371000           0.50638000         
H                    -2.26847000          -0.90304000          -0.84851000         
H                    -0.31641000          -0.06731000           1.38413000         
H                     0.77930000          -0.35252000          -1.48003000         
H                     0.88765000          -1.60679000          -0.22704000         
H                     2.12879000          -0.02393000           1.30052000         
H                     2.06280000           1.24647000           0.05550000         
H                     2.99063000          -0.24752000          -0.24855000         
H                    -0.10365000           2.10381000           0.11568000         
H                    -1.83790000           1.67539000           0.39539000         
H                    -1.08645000           1.40617000          -1.21646000         
16
Image 21 energy:-0.03796 
C                    -1.61265000          -1.04215000           0.02442000         
C                    -0.50794000          -0.06467000           0.28834000         
C                     0.82043000          -0.51171000          -0.38009000         
C                     2.06967000           0.14570000           0.22533000         
C                    -0.90561000           1.36622000          -0.13552000         
H                    -1.62190000          -2.01120000           0.52634000         
H                    -2.26126000          -0.92182000          -0.84492000         
H                    -0.31898000          -0.05918000           1.39028000         
H                     0.74779000          -0.29275000          -1.45431000         
H                     0.91085000          -1.60631000          -0.28790000         
H                     2.13533000          -0.06643000           1.30713000         
H                     2.04163000           1.24337000           0.10158000         
H                     2.98745000          -0.21488000          -0.25758000         
H                    -0.08581000           2.07083000           0.05204000         
H                    -1.78336000           1.72187000           0.41111000         
H                    -1.13117000           1.40585000          -1.21135000         
16
Image 22 energy:-0.03746 
C                    -1.60548000          -1.03996000           0.02764000         
C                    -0.52589000          -0.05259000           0.30303000         
C                     0.83374000          -0.51119000          -0.39474000         
C                     2.07296000           0.13650000           0.23278000         
C                    -0.91723000           1.36452000          -0.14177000         
H                    -1.63066000          -1.99847000           0.54892000         
H                    -2.26417000          -0.92185000          -0.83477000         
H                    -0.30568000          -0.05088000           1.37715000         
H                     0.79391000          -0.28527000          -1.47917000         
H                     0.94044000          -1.61047000          -0.32830000         
H                     2.16250000          -0.13077000           1.29963000         
H                     2.04902000           1.23777000           0.16579000         
H                     2.99007000          -0.20342000          -0.28180000         