15
Image 1 energy:-0.02003 
C                    -1.82103000           0.71546000          -0.34927000         
C                    -1.90214000          -0.69732000           0.12492000         
C                     1.71302000           0.74436000           0.33185000         
C                     1.90430000          -0.70636000          -0.12984000         
H                     0.66811000           1.06408000           0.19031000         
H                    -2.09607000           1.54009000           0.30739000         
H                    -1.68060000           0.94139000          -1.40601000         
H                    -1.58307000          -0.79446000           1.17512000         
H                    -1.27893000          -1.36858000          -0.48472000         
H                     1.95903000           0.86183000           1.39794000         
H                     2.35542000           1.43320000          -0.23760000         
H                     1.26262000          -1.39443000           0.44367000         
H                    -2.93823000          -1.09372000           0.07598000         
H                     2.94714000          -1.03630000          -0.00210000         
H                     1.64491000          -0.82160000          -1.19396000         
15
Image 2 energy:-0.02003 
C                    -1.81989000           0.71277000          -0.34987000         
C                    -1.90965000          -0.69656000           0.12430000         
C                     1.71633000           0.74343000           0.33329000         
C                     1.90661000          -0.70374000          -0.13021000         
H                     0.66841000           1.06148000           0.20961000         
H                    -2.09855000           1.53919000           0.30550000         
H                    -1.66857000           0.94033000          -1.40528000         
H                    -1.60396000          -0.79130000           1.17916000         
H                    -1.27751000          -1.36916000          -0.47471000         
H                     1.98171000           0.86141000           1.39607000         
H                     2.34823000           1.43389000          -0.24635000         
H                     1.28494000          -1.39421000           0.45743000         
H                    -2.94457000          -1.09483000           0.06149000         
H                     2.95379000          -1.02863000          -0.02690000         
H                     1.62535000          -0.82379000          -1.18834000         
15
Image 3 energy:-0.02003 
C                    -1.81831000           0.71305000          -0.34811000         
C                    -1.90976000          -0.69995000           0.12157000         
C                     1.72289000           0.74744000           0.33334000         
C                     1.89958000          -0.70457000          -0.12851000         
H                     0.67265000           1.06346000           0.22955000         
H                    -2.10835000           1.53646000           0.30362000         
H                    -1.65801000           0.94160000          -1.40141000         
H                    -1.61851000          -0.79867000           1.17754000         
H                    -1.26954000          -1.36926000          -0.47275000         
H                     2.00948000           0.87005000           1.38889000         
H                     2.34158000           1.43613000          -0.26361000         
H                     1.28310000          -1.39238000           0.47078000         
H                    -2.94152000          -1.09791000           0.04571000         
H                     2.94628000          -1.03154000          -0.03881000         
H                     1.60015000          -0.82447000          -1.18098000         
15
Image 4 energy:-0.02003 
C                    -1.81384000           0.71360000          -0.34402000         
C                    -1.91176000          -0.70108000           0.11611000         
C                     1.72050000           0.74830000           0.32993000         
C                     1.89932000          -0.70486000          -0.12397000         
H                     0.66526000           1.05897000           0.24243000         
H                    -2.10639000           1.53378000           0.31210000         
H                    -1.64404000           0.94906000          -1.39463000         
H                    -1.60711000          -0.80862000           1.17123000         
H                    -1.28237000          -1.37076000          -0.48935000         
H                     2.02588000           0.88062000           1.38060000         
H                     2.32501000           1.43643000          -0.28056000         
H                     1.29859000          -1.39102000           0.49284000         
H                    -2.94960000          -1.09262000           0.04899000         
H                     2.95107000          -1.02471000          -0.05199000         
H                     1.58317000          -0.83743000          -1.17042000         
15
Image 5 energy:-0.02003 
C                    -1.81324000           0.71409000          -0.34098000         
C                    -1.91603000          -0.70267000           0.11252000         
C                     1.72413000           0.74974000           0.32833000         
C                     1.89981000          -0.70517000          -0.12094000         
H                     0.66828000           1.05449000           0.26298000         
H                    -2.11560000           1.53083000           0.31539000         
H                    -1.63326000           0.95511000          -1.38889000         
H                    -1.63329000          -0.81304000           1.17028000         
H                    -1.27601000          -1.37047000          -0.48207000         
H                     2.05327000           0.88936000           1.36931000         
H                     2.31094000           1.43602000          -0.30330000         
H                     1.31478000          -1.39092000           0.50986000         
H                    -2.95018000          -1.09420000           0.02521000         
H                     2.95300000          -1.02034000          -0.06783000         
H                     1.56206000          -0.84345000          -1.16008000         
15
Image 6 energy:-0.02003 
C                    -1.80996000           0.71495000          -0.33625000         
C                    -1.91692000          -0.70464000           0.10704000         
C                     1.72550000           0.75215000           0.32467000         
C                     1.89609000          -0.70636000          -0.11609000         
H                     0.66457000           1.05198000           0.28126000         
H                    -2.12029000           1.52779000           0.31960000         
H                    -1.62004000           0.96045000          -1.38044000         
H                    -1.63200000          -0.82510000           1.16506000         
H                    -1.27625000          -1.36802000          -0.49630000         
H                     2.07796000           0.90222000           1.35743000         
H                     2.29467000           1.43649000          -0.32306000         
H                     1.32403000          -1.38889000           0.53111000         
H                    -2.95336000          -1.09305000           0.01783000         
H                     2.95183000          -1.01798000          -0.07894000         
H                     1.54253000          -0.85388000          -1.14793000         
15
Image 7 energy:-0.02003 
C                    -1.80846000           0.71633000          -0.33230000         
C                    -1.91888000          -0.70577000           0.10235000         
C                     1.72500000           0.75280000           0.32171000         
C                     1.89770000          -0.70738000          -0.11229000         
H                     0.66387000           1.04543000           0.29633000         
H                    -2.12488000           1.52435000           0.32895000         
H                    -1.60848000           0.97122000          -1.37370000         
H                    -1.65171000          -0.82817000           1.16381000         
H                    -1.27371000          -1.36925000          -0.48893000         
H                     2.09747000           0.91242000           1.34483000         
H                     2.27602000           1.43551000          -0.34431000         
H                     1.34385000          -1.38869000           0.55181000         
H                    -2.95359000          -1.09355000          -0.00386000         
H                     2.95537000          -1.01074000          -0.09474000         
H                     1.52179000          -0.86505000          -1.13593000         
15
Image 8 energy:-0.02001 
C                    -1.80629000           0.71748000          -0.32700000         
C                    -1.92121000          -0.70714000           0.09778000         
C                     1.72579000           0.75431000           0.31766000         
C                     1.89662000          -0.70820000          -0.10747000         
H                     0.66124000           1.04111000           0.31342000         
H                    -2.12882000           1.52316000           0.33095000         
H                    -1.59693000           0.97404000          -1.36423000         
H                    -1.66469000          -0.83878000           1.16188000         
H                    -1.26049000          -1.36184000          -0.49684000         
H                     2.11903000           0.92497000           1.33155000         
H                     2.25874000           1.43454000          -0.36520000         
H                     1.35555000          -1.38700000           0.56845000         
H                    -2.95435000          -1.09679000          -0.02378000         
H                     2.95643000          -1.01126000          -0.10661000         
H                     1.50555000          -0.87434000          -1.12294000         
15
Image 9 energy:-0.02001 
C                    -1.80508000           0.71819000          -0.32477000         
C                    -1.92270000          -0.70804000           0.09446000         
C                     1.72661000           0.75532000           0.31608000         
C                     1.89663000          -0.70955000          -0.10592000         
H                     0.66160000           1.03735000           0.32726000         
H                    -2.13224000           1.52011000           0.33916000         
H                    -1.58527000           0.98293000          -1.35985000         
H                    -1.69036000          -0.83655000           1.16435000         
H                    -1.25484000          -1.36318000          -0.47962000         
H                     2.13621000           0.93177000           1.32233000         
H                     2.24452000           1.43526000          -0.37711000         
H                     1.37748000          -1.38742000           0.58962000         
H                    -2.95135000          -1.10209000          -0.05016000         
H                     2.95604000          -1.00039000          -0.12585000         
H                     1.48281000          -0.88366000          -1.11029000         
15
Image 10 energy:-0.02000 
C                    -1.80311000           0.71970000          -0.31976000         
C                    -1.92499000          -0.70871000           0.09096000         
C                     1.72548000           0.75555000           0.31272000         
C                     1.89728000          -0.70994000          -0.10177000         
H                     0.65992000           1.03236000           0.33888000         
H                    -2.13342000           1.52194000           0.33850000         
H                    -1.57466000           0.98294000          -1.35179000         
H                    -1.70974000          -0.84563000           1.16288000         
H                    -1.23545000          -1.35311000          -0.48078000         
H                     2.14746000           0.94066000           1.31093000         
H                     2.22890000           1.43250000          -0.39536000         
H                     1.39651000          -1.38692000           0.60685000         
H                    -2.94821000          -1.10572000          -0.07490000         
H                     2.96065000          -0.99804000          -0.14510000         
H                     1.46239000          -0.89493000          -1.09767000         
15
Image 11 energy:-0.02000 
C                    -1.80438000           0.72055000          -0.31506000         
C                    -1.92722000          -0.71056000           0.08593000         
C                     1.72977000           0.75797000           0.30840000         
C                     1.89685000          -0.71150000          -0.09768000         
H                     0.66388000           1.03293000           0.35184000         
H                    -2.13948000           1.51724000           0.35096000         
H                    -1.56785000           0.99468000          -1.34381000         
H                    -1.73442000          -0.85438000           1.16087000         
H                    -1.23043000          -1.35040000          -0.47119000         
H                     2.17153000           0.95320000           1.29843000         
H                     2.21870000           1.43130000          -0.41202000         
H                     1.40437000          -1.38228000           0.62237000         
H                    -2.94325000          -1.11156000          -0.10450000         
H                     2.95578000          -0.99950000          -0.14998000         
H                     1.45108000          -0.90345000          -1.08363000         
15
Image 12 energy:-0.02000 
C                    -1.80683000           0.72035000          -0.31529000         
C                    -1.92937000          -0.71107000           0.08635000         
C                     1.73536000           0.75866000           0.30986000         
C                     1.89570000          -0.71120000          -0.09845000         
H                     0.67074000           1.03430000           0.36139000         
H                    -2.14719000           1.51745000           0.34550000         
H                    -1.56407000           0.99200000          -1.34307000         
H                    -1.76809000          -0.85230000           1.16611000         
H                    -1.20728000          -1.34547000          -0.45146000         
H                     2.18312000           0.95254000           1.29483000         
H                     2.21827000           1.43049000          -0.41633000         
H                     1.41910000          -1.38181000           0.63411000         
H                    -2.93606000          -1.12042000          -0.13334000         
H                     2.95539000          -0.99749000          -0.17287000         
H                     1.42782000          -0.90497000          -1.07611000         
15
Image 13 energy:-0.01999 
C                    -1.80526000           0.71783000          -0.32119000         
C                    -1.92860000          -0.70894000           0.09211000         
C                     1.73327000           0.75612000           0.31532000         
C                     1.89550000          -0.70882000          -0.10467000         
H                     0.66777000           1.03641000           0.36019000         
H                    -2.14668000           1.51793000           0.33566000         
H                    -1.56792000           0.98371000          -1.35082000         
H                    -1.77298000          -0.83234000           1.17570000         
H                    -1.20809000          -1.35330000          -0.43212000         
H                     2.18003000           0.94233000           1.30777000         
H                     2.22640000           1.43201000          -0.40261000         
H                     1.41569000          -1.38596000           0.61564000         
H                    -2.93583000          -1.12130000          -0.12952000         
H                     2.95587000          -0.99521000          -0.17330000         
H                     1.43704000          -0.89338000          -1.08724000         
15
Image 14 energy:-0.01998 
C                    -1.80637000           0.71656000          -0.32653000         
C                    -1.92848000          -0.70797000           0.09750000         
C                     1.73475000           0.75546000           0.31944000         
C                     1.89553000          -0.70777000          -0.10961000         
H                     0.66994000           1.03807000           0.35199000         
H                    -2.14448000           1.52296000           0.32570000         
H                    -1.57299000           0.97359000          -1.35995000         
H                    -1.75319000          -0.82606000           1.17809000         
H                    -1.21365000          -1.35475000          -0.43768000         
H                     2.15603000           0.92713000           1.31662000         
H                     2.23624000           1.43797000          -0.37865000         
H                     1.40451000          -1.38716000           0.60748000         
H                    -2.94026000          -1.12029000          -0.10746000         
H                     2.95642000          -0.99426000          -0.16866000         
H                     1.44649000          -0.88739000          -1.09893000         
15
Image 15 energy:-0.01999 
C                    -1.80542000           0.71454000          -0.33203000         
C                    -1.92847000          -0.70640000           0.10274000         
C                     1.73181000           0.75385000           0.32521000         
C                     1.89635000          -0.70566000          -0.11392000         
H                     0.66876000           1.03826000           0.35047000         
H                    -2.14202000           1.52684000           0.31178000         
H                    -1.57318000           0.96119000          -1.36857000         
H                    -1.73897000          -0.82621000           1.18118000         
H                    -1.22713000          -1.35709000          -0.44020000         
H                     2.16041000           0.92571000           1.32977000         
H                     2.24535000           1.43540000          -0.37558000         
H                     1.39293000          -1.39210000           0.58122000         
H                    -2.94459000          -1.11326000          -0.08254000         
H                     2.95740000          -0.99967000          -0.16104000         
H                     1.45995000          -0.86967000          -1.11222000         
15
Image 16 energy:-0.02001 
C                    -1.80469000           0.71207000          -0.33769000         
C                    -1.92869000          -0.70498000           0.10886000         
C                     1.73303000           0.75267000           0.32902000         
C                     1.89603000          -0.70384000          -0.12038000         
H                     0.66788000           1.04112000           0.34400000         
H                    -2.13885000           1.52884000           0.30263000         
H                    -1.57830000           0.95212000          -1.37628000         
H                    -1.74091000          -0.81400000           1.18851000         
H                    -1.22876000          -1.36245000          -0.42685000         
H                     2.13648000           0.90648000           1.33932000         
H                     2.25560000           1.44356000          -0.34790000         
H                     1.38162000          -1.39270000           0.56796000         
H                    -2.94467000          -1.11008000          -0.07186000         
H                     2.95602000          -0.99671000          -0.15434000         
H                     1.47613000          -0.86199000          -1.12482000         
15
Image 17 energy:-0.02001 
C                    -1.80223000           0.71077000          -0.34303000         
C                    -1.92549000          -0.70289000           0.11502000         
C                     1.72676000           0.75037000           0.33436000         
C                     1.89612000          -0.70220000          -0.12620000         
H                     0.66542000           1.03713000           0.33712000         
H                    -2.13173000           1.53272000           0.29290000         
H                    -1.57528000           0.94331000          -1.38396000         
H                    -1.73400000          -0.79692000           1.19565000         
H                    -1.22577000          -1.36845000          -0.41514000         
H                     2.12665000           0.89877000           1.35089000         
H                     2.25857000           1.44429000          -0.33686000         
H                     1.36799000          -1.39626000           0.54583000         
H                    -2.94410000          -1.11279000          -0.06230000         
H                     2.95602000          -1.00177000          -0.14901000         
H                     1.48470000          -0.84737000          -1.13878000         
15
Image 18 energy:-0.02003 
C                    -1.80051000           0.70877000          -0.34862000         
C                    -1.92580000          -0.70146000           0.12061000         
C                     1.72500000           0.74873000           0.33824000         
C                     1.89646000          -0.70049000          -0.13120000         
H                     0.66032000           1.03999000           0.33375000         
H                    -2.12560000           1.53706000           0.28097000         
H                    -1.57435000           0.93114000          -1.39089000         
H                    -1.71385000          -0.79437000           1.19764000         
H                    -1.24181000          -1.37256000          -0.42104000         
H                     2.10696000           0.88673000           1.36070000         
H                     2.26499000           1.44900000          -0.31685000         
H                     1.36123000          -1.40039000           0.52731000         
H                    -2.94953000          -1.10168000          -0.03182000         
H                     2.95571000          -0.99858000          -0.14112000         
H                     1.50436000          -0.83767000          -1.14896000         
15
Image 19 energy:-0.02002 
C                    -1.79753000           0.70542000          -0.35508000         
C                    -1.92422000          -0.69877000           0.12655000         
C                     1.72183000           0.74740000           0.34476000         
C                     1.89467000          -0.69850000          -0.13763000         
H                     0.66041000           1.03572000           0.32737000         
H                    -2.11701000           1.53955000           0.26920000         
H                    -1.56962000           0.92110000          -1.39893000         
H                    -1.70404000          -0.78464000           1.20297000         
H                    -1.24692000          -1.37627000          -0.41374000         
H                     2.09706000           0.87533000           1.37232000         
H                     2.27108000           1.45149000          -0.30006000         
H                     1.35705000          -1.40163000           0.51777000         
H                    -2.95054000          -1.09894000          -0.01477000         
H                     2.95474000          -0.99347000          -0.14780000         
H                     1.50096000          -0.82965000          -1.15958000         
15
Image 20 energy:-0.02003 
C                    -1.79977000           0.70592000          -0.35971000         
C                    -1.92087000          -0.69781000           0.13213000         
C                     1.71906000           0.74417000           0.34690000         
C                     1.89645000          -0.69691000          -0.14132000         
H                     0.65776000           1.04163000           0.32346000         
H                    -2.11930000           1.54327000           0.26147000         
H                    -1.57273000           0.91448000          -1.40494000         
H                    -1.69610000          -0.77354000           1.20764000         
H                    -1.24547000          -1.37960000          -0.40710000         
H                     2.07993000           0.86378000           1.37943000         
H                     2.27627000           1.45248000          -0.28565000         
H                     1.33851000          -1.40476000           0.49003000         
H                    -2.94740000          -1.09808000          -0.00167000         
H                     2.95387000          -1.00655000          -0.13037000         
H                     1.52648000          -0.81230000          -1.17040000         
15
Image 21 energy:-0.02003 
C                    -1.79670000           0.70202000          -0.36610000         
C                    -1.91867000          -0.69516000           0.13771000         
C                     1.71825000           0.74370000           0.35398000         
C                     1.89152000          -0.69546000          -0.14829000         
H                     0.65730000           1.04096000           0.32155000         
H                    -2.11532000           1.54594000           0.24519000         
H                    -1.56771000           0.90064000          -1.41238000         
H                    -1.68322000          -0.76332000           1.21193000         
H                    -1.24952000          -1.38273000          -0.40172000         
H                     2.07060000           0.85224000           1.39162000         
H                     2.28491000           1.45522000          -0.26645000         
H                     1.33644000          -1.40678000           0.48133000         
H                    -2.94746000          -1.09510000           0.01723000         
H                     2.94861000          -0.99737000          -0.13895000         
H                     1.52279000          -0.80580000          -1.17910000         
15
Image 22 energy:-0.02003 
C                    -1.80159000           0.70122000          -0.37381000         
C                    -1.91528000          -0.69321000           0.14422000         
C                     1.71880000           0.74016000           0.35951000         
C                     1.89257000          -0.69307000          -0.15312000         
H                     0.66116000           1.04602000           0.31843000         
H                    -2.12348000           1.54804000           0.23287000         
H                    -1.57351000           0.89307000          -1.42205000         
H                    -1.67246000          -0.75248000           1.21754000         
H                    -1.24926000          -1.38291000          -0.39439000         
H                     2.05884000           0.83739000           1.40151000         
H                     2.29508000           1.45446000          -0.24806000         
H                     1.32393000          -1.40656000           0.46279000         
H                    -2.94379000          -1.09547000           0.03565000         
H                     2.94902000          -1.00691000          -0.13810000         
H                     1.53062000          -0.79079000          -1.18992000         
15
Image 23 energy:-0.02003 
C                    -1.80305000           0.69728000          -0.37979000         
C                    -1.91293000          -0.69040000           0.14994000         
C                     1.72158000           0.73956000           0.36578000         
C                     1.88828000          -0.69138000          -0.15987000         
H                     0.66576000           1.04870000           0.32041000         
H                    -2.13106000           1.54909000           0.21652000         
H                    -1.57435000           0.88063000          -1.42967000         
H                    -1.67047000          -0.73767000           1.22296000         
H                    -1.24333000          -1.38390000          -0.38198000         
H                     2.05506000           0.82539000           1.41253000         
H                     2.30909000           1.45422000          -0.23106000         
H                     1.31059000          -1.40868000           0.44218000         
H                    -2.94008000          -1.09880000           0.04523000         
H                     2.94028000          -1.00898000          -0.13329000         
H                     1.54202000          -0.77570000          -1.19874000         
15
Image 24 energy:-0.02002 
C                    -1.80623000           0.69725000          -0.38746000         
C                    -1.90766000          -0.68859000           0.15605000         
C                     1.72123000           0.73563000           0.37226000         