19
Image 1 energy:-0.00434 
C                     1.52522000          -1.24080000          -0.04218000         
C                     0.67585000           0.00269000          -0.04845000         
C                     1.52369000           1.24689000          -0.01433000         
C                    -0.66097000           0.00153000          -0.09165000         
C                    -1.51040000           1.24409000          -0.13940000         
C                    -1.50808000          -1.24409000          -0.11054000         
H                     2.12590000          -1.28742000           0.87062000         
H                     2.23248000          -1.21408000          -0.87541000         
H                     0.96169000          -2.16483000          -0.12150000         
H                     2.15444000           1.30127000          -0.90754000         
H                     2.20286000           1.21130000           0.84312000         
H                     0.95811000           2.17230000           0.05266000         
H                    -0.63199000          -0.13649000           6.26562000         
H                    -0.94890000           2.16726000          -0.24801000         
H                    -2.11810000           1.32406000           0.76748000         
H                    -2.21148000           1.18199000          -0.97765000         
H                    -0.95957000          -2.16038000           0.08964000         
H                    -2.00292000          -1.35330000          -1.07998000         
H                    -2.30209000          -1.16449000           0.63786000         
19
Image 2 energy:-0.00434 
C                     1.52485000          -1.24173000          -0.04011000         
C                     0.67586000           0.00231000          -0.05056000         
C                     1.52332000           1.24677000          -0.01072000         
C                    -0.66062000           0.00129000          -0.09323000         
C                    -1.51074000           1.24419000          -0.13784000         
C                    -1.50834000          -1.24396000          -0.11084000         
H                     2.12371000          -1.28573000           0.87499000         
H                     2.23211000          -1.21117000          -0.87539000         
H                     0.96548000          -2.17041000          -0.11945000         
H                     2.14176000           1.31580000          -0.91145000         
H                     2.21400000           1.19877000           0.83687000         
H                     0.95776000           2.17010000           0.07919000         
H                    -0.61715000          -0.12106000           6.20415000         
H                    -0.94774000           2.16656000          -0.25142000         
H                    -2.11598000           1.32604000           0.77039000         
H                    -2.21304000           1.18304000          -0.97416000         
H                    -0.96036000          -2.16082000           0.09136000         
H                    -2.00430000          -1.35427000          -1.08169000         
H                    -2.30408000          -1.16258000           0.63498000         
19
Image 3 energy:-0.00434 
C                     1.52494000          -1.24132000          -0.04414000         
C                     0.67504000           0.00174000          -0.04532000         
C                     1.52236000           1.24650000          -0.00701000         
C                    -0.66138000           0.00106000          -0.09040000         
C                    -1.50910000           1.24469000          -0.14065000         
C                    -1.50824000          -1.24476000          -0.10992000         
H                     2.12411000          -1.29560000           0.86888000         
H                     2.23455000          -1.20916000          -0.87501000         
H                     0.96058000          -2.16394000          -0.13047000         
H                     2.12524000           1.32511000          -0.91710000         
H                     2.22720000           1.19127000           0.82785000         
H                     0.95785000           2.16811000           0.10147000         
H                    -0.61151000          -0.10557000           6.14743000         
H                    -0.94645000           2.16602000          -0.25871000         
H                    -2.11215000           1.33171000           0.76845000         
H                    -2.21427000           1.17811000          -0.97501000         
H                    -0.96052000          -2.15829000           0.09783000         
H                    -1.99762000          -1.35846000          -1.08110000         
H                    -2.30640000          -1.16355000           0.63395000         
19
Image 4 energy:-0.00435 
C                     1.52405000          -1.24243000          -0.03921000         
C                     0.67589000           0.00179000          -0.04646000         
C                     1.52214000           1.24717000          -0.00667000         
C                    -0.66072000           0.00054000          -0.09165000         
C                    -1.50965000           1.24410000          -0.13715000         
C                    -1.50884000          -1.24432000          -0.11262000         
H                     2.11857000          -1.28977000           0.87905000         
H                     2.23583000          -1.21001000          -0.87073000         
H                     0.96344000          -2.16996000          -0.12533000         
H                     2.11587000           1.33470000          -0.92199000         
H                     2.23512000           1.18541000           0.82064000         
H                     0.95734000           2.16689000           0.11588000         
H                    -0.59381000          -0.09603000           6.08315000         
H                    -0.94631000           2.16475000          -0.26034000         
H                    -2.10761000           1.33225000           0.77596000         
H                    -2.21890000           1.17877000          -0.96763000         
H                    -0.96174000          -2.16236000           0.09085000         
H                    -2.00118000          -1.35412000          -1.08536000         
H                    -2.30709000          -1.16214000           0.63053000         
19
Image 5 energy:-0.00435 
C                     1.52498000          -1.24215000          -0.04154000         
C                     0.67446000           0.00092000          -0.04513000         
C                     1.52152000           1.24586000          -0.00226000         
C                    -0.66164000           0.00077000          -0.09081000         
C                    -1.50913000           1.24507000          -0.13756000         
C                    -1.50885000          -1.24474000          -0.11146000         
H                     2.11649000          -1.30088000           0.87567000         
H                     2.24035000          -1.20268000          -0.86709000         
H                     0.96452000          -2.16577000          -0.13718000         
H                     2.11485000           1.33541000          -0.91770000         
H                     2.23503000           1.18176000           0.82454000         
H                     0.95735000           2.16563000           0.12309000         
H                    -0.58191000          -0.07993000           6.01474000         
H                    -0.94615000           2.16522000          -0.26783000         
H                    -2.10324000           1.33725000           0.77603000         
H                    -2.22209000           1.17555000          -0.96448000         
H                    -0.96200000          -2.15809000           0.09943000         
H                    -1.99653000          -1.35931000          -1.08392000         
H                    -2.30889000          -1.16232000           0.63001000         
19
Image 6 energy:-0.00435 
C                     1.52283000          -1.24279000          -0.04168000         
C                     0.67549000           0.00150000          -0.04372000         
C                     1.52148000           1.24670000           0.00050000         
C                    -0.66119000           0.00041000          -0.09074000         
C                    -1.50933000           1.24416000          -0.13685000         
C                    -1.50848000          -1.24486000          -0.11178000         
H                     2.11060000          -1.29790000           0.88140000         
H                     2.24250000          -1.20713000          -0.86699000         
H                     0.95846000          -2.16806000          -0.13851000         
H                     2.11901000           1.33499000          -0.91234000         
H                     2.23106000           1.18466000           0.83065000         
H                     0.95578000           2.16625000           0.12114000         
H                    -0.56455000          -0.06951000           5.94335000         
H                    -0.94693000           2.16326000          -0.27256000         
H                    -2.09593000           1.34035000           0.78399000         
H                    -2.22875000           1.17242000          -0.95829000         
H                    -0.96128000          -2.16160000           0.09527000         
H                    -1.99763000          -1.35679000          -1.08500000         
H                    -2.30820000          -1.16182000           0.62969000         
19
Image 7 energy:-0.00435 
C                     1.52500000          -1.24275000          -0.03958000         
C                     0.67440000           0.00066000          -0.04626000         
C                     1.52085000           1.24567000           0.00251000         
C                    -0.66176000           0.00027000          -0.09158000         
C                    -1.50942000           1.24496000          -0.13381000         
C                    -1.50997000          -1.24482000          -0.11187000         
H                     2.10458000          -1.30705000           0.88424000         
H                     2.24941000          -1.19534000          -0.85585000         
H                     0.97005000          -2.16656000          -0.14917000         
H                     2.12547000           1.33242000          -0.90569000         
H                     2.22409000           1.18288000           0.83814000         
H                     0.95582000           2.16600000           0.11904000         
H                    -0.54924000          -0.05840000           5.87607000         
H                    -0.94738000           2.16400000          -0.27731000         
H                    -2.09235000           1.34283000           0.78511000         
H                    -2.23304000           1.17143000          -0.95095000         
H                    -0.96400000          -2.15936000           0.09902000         
H                    -1.99895000          -1.35975000          -1.08456000         
H                    -2.31005000          -1.16047000           0.62977000         
19
Image 8 energy:-0.00435 
C                     1.52252000          -1.24276000          -0.04213000         
C                     0.67462000           0.00116000          -0.04285000         
C                     1.52129000           1.24577000           0.00602000         
C                    -0.66179000           0.00068000          -0.09023000         
C                    -1.51014000           1.24427000          -0.13523000         
C                    -1.50795000          -1.24524000          -0.11099000         
H                     2.10230000          -1.30804000           0.88580000         
H                     2.25084000          -1.20071000          -0.86008000         
H                     0.95569000          -2.16640000          -0.15195000         
H                     2.12791000           1.33081000          -0.90110000         
H                     2.22261000           1.18599000           0.84341000         
H                     0.95519000           2.16616000           0.11838000         
H                    -0.53729000          -0.04831000           5.80680000         
H                    -0.94923000           2.16246000          -0.28516000         
H                    -2.08417000           1.34769000           0.79322000         
H                    -2.23923000           1.16632000          -0.94674000         
H                    -0.95981000          -2.15992000           0.09827000         
H                    -1.99556000          -1.35881000          -1.08408000         
H                    -2.30835000          -1.16334000           0.62933000         
19
Image 9 energy:-0.00436 
C                     1.52270000          -1.24385000          -0.03886000         
C                     0.67477000           0.00090000          -0.04411000         
C                     1.51989000           1.24650000           0.00662000         
C                    -0.66154000          -0.00014000          -0.09120000         
C                    -1.50890000           1.24468000          -0.13174000         
C                    -1.50927000          -1.24546000          -0.11205000         
H                     2.08914000          -1.31372000           0.89301000         
H                     2.25789000          -1.19294000          -0.84543000         
H                     0.96781000          -2.16572000          -0.16445000         
H                     2.12725000           1.33306000          -0.89985000         
H                     2.22059000           1.18499000           0.84453000         
H                     0.95320000           2.16629000           0.12060000         
H                    -0.52146000          -0.04014000           5.73736000         
H                    -0.94824000           2.16176000          -0.28874000         
H                    -2.07911000           1.35005000           0.79489000         
H                    -2.24466000           1.16584000          -0.93824000         
H                    -0.96296000          -2.16050000           0.09717000         
H                    -1.99957000          -1.35860000          -1.08441000         
H                    -2.30827000          -1.16163000           0.63129000         
19
Image 10 energy:-0.00437 
C                     1.52510000          -1.24241000          -0.04070000         
C                     0.67365000          -0.00016000          -0.04272000         
C                     1.51964000           1.24484000           0.01105000         
C                    -0.66250000          -0.00024000          -0.09014000         
C                    -1.50934000           1.24491000          -0.13350000         
C                    -1.51034000          -1.24510000          -0.11016000         
H                     2.09488000          -1.31890000           0.89186000         
H                     2.26175000          -1.18698000          -0.84954000         
H                     0.96338000          -2.16667000          -0.16733000         
H                     2.12284000           1.33731000          -0.89787000         
H                     2.22446000           1.17845000           0.84538000         
H                     0.95360000           2.16416000           0.13382000         
H                    -0.51177000          -0.02755000           5.66845000         
H                    -0.94814000           2.16059000          -0.29935000         
H                    -2.07239000           1.35757000           0.79951000         
H                    -2.24785000           1.16151000          -0.93537000         
H                    -0.96259000          -2.16121000           0.09732000         
H                    -2.00040000          -1.35842000          -1.08223000         
H                    -2.30909000          -1.16185000           0.63151000         
19
Image 11 energy:-0.00438 
C                     1.51999000          -1.24501000          -0.04042000         
C                     0.67478000           0.00106000          -0.04120000         
C                     1.51944000           1.24691000           0.01296000         
C                    -0.66146000           0.00008000          -0.09053000         
C                    -1.50912000           1.24453000          -0.13294000         
C                    -1.50734000          -1.24621000          -0.10997000         
H                     2.07554000          -1.32405000           0.89779000         
H                     2.26492000          -1.18975000          -0.83838000         
H                     0.96257000          -2.16377000          -0.18226000         
H                     2.11470000           1.34558000          -0.90036000         
H                     2.23101000           1.17680000           0.84093000         
H                     0.95228000           2.16401000           0.14578000         
H                    -0.49962000          -0.02015000           5.60493000         
H                    -0.94921000           2.15946000          -0.30601000         
H                    -2.06717000           1.35933000           0.80098000         
H                    -2.25317000           1.15944000          -0.92988000         
H                    -0.95957000          -2.15894000           0.09993000         
H                    -1.99962000          -1.36020000          -1.08086000         
H                    -2.30483000          -1.16393000           0.63504000         
19
Image 12 energy:-0.00438 
C                     1.52552000          -1.24277000          -0.03950000         
C                     0.67318000          -0.00108000          -0.04093000         
C                     1.51708000           1.24533000           0.01531000         
C                    -0.66270000          -0.00145000          -0.08964000         
C                    -1.50660000           1.24578000          -0.13345000         
C                    -1.51156000          -1.24565000          -0.10909000         
H                     2.08305000          -1.32836000           0.89903000         
H                     2.27132000          -1.17726000          -0.83795000         
H                     0.96832000          -2.16634000          -0.18347000         
H                     2.10449000           1.35248000          -0.90215000         
H                     2.23609000           1.16888000           0.83637000         
H                     0.95087000           2.16098000           0.16132000         
H                    -0.49148000          -0.01235000           5.54295000         
H                    -0.94509000           2.15771000          -0.31296000         
H                    -2.06047000           1.36808000           0.80266000         
H                    -2.25679000           1.15682000          -0.92668000         
H                    -0.96352000          -2.16313000           0.09515000         
H                    -2.00503000          -1.35713000          -1.07965000         
H                    -2.30760000          -1.16222000           0.63599000         
19
Image 13 energy:-0.00438 
C                     1.52124000          -1.24515000          -0.04084000         
C                     0.67432000           0.00005000          -0.03916000         
C                     1.51772000           1.24668000           0.01888000         
C                    -0.66178000          -0.00060000          -0.08981000         
C                    -1.50869000           1.24472000          -0.13465000         
C                    -1.50836000          -1.24610000          -0.10740000         
H                     2.06686000          -1.33579000           0.90241000         
H                     2.27502000          -1.18026000          -0.83107000         
H                     0.96414000          -2.16223000          -0.19885000         
H                     2.09626000           1.36193000          -0.90312000         
H                     2.24396000           1.16519000           0.83274000         
H                     0.95056000           2.15972000           0.17718000         
H                    -0.48045000          -0.00366000           5.47861000         
H                    -0.94707000           2.15647000          -0.32339000         
H                    -2.05673000           1.37074000           0.80505000         
H                    -2.25543000           1.15508000          -0.92417000         
H                    -0.96036000          -2.15933000           0.10134000         
H                    -2.00353000          -1.36009000          -1.07674000         
H                    -2.30361000          -1.16305000           0.63909000         
19
Image 14 energy:-0.00437 
C                     1.52307000          -1.24406000          -0.03994000         
C                     0.67332000          -0.00108000          -0.03932000         
C                     1.51533000           1.24642000           0.02126000         
C                    -0.66250000          -0.00171000          -0.08976000         
C                    -1.50474000           1.24624000          -0.13464000         
C                    -1.51027000          -1.24663000          -0.10627000         
H                     2.06566000          -1.33986000           0.90756000         
H                     2.28124000          -1.17109000          -0.82424000         
H                     0.96749000          -2.16558000          -0.20322000         
H                     2.08745000           1.36923000          -0.90378000         
H                     2.24749000           1.15944000           0.82925000         
H                     0.94877000           2.15774000           0.19054000         
H                    -0.47042000           0.00187000           5.40974000         
H                    -0.94414000           2.15557000          -0.32942000         
H                    -2.04905000           1.37650000           0.80403000         
H                    -2.26927000           1.14998000          -0.91855000         
H                    -0.96172000          -2.16228000           0.09844000         
H                    -2.00709000          -1.35889000          -1.07494000         
H                    -2.30364000          -1.16293000           0.64229000         
19
Image 15 energy:-0.00435 
C                     1.52275000          -1.24478000          -0.03911000         
C                     0.67348000          -0.00085000          -0.03845000         
C                     1.51545000           1.24665000           0.02321000         
C                    -0.66240000          -0.00155000          -0.08911000         
C                    -1.50722000           1.24551000          -0.13551000         
C                    -1.50954000          -1.24660000          -0.10452000         
H                     2.05025000          -1.35152000           0.90895000         
H                     2.28936000          -1.16922000          -0.81856000         
H                     0.96776000          -2.15856000          -0.21936000         
H                     2.08132000           1.37568000          -0.90486000         
H                     2.25293000           1.15630000           0.82602000         
H                     0.94849000           2.15622000           0.20184000         
H                    -0.45993000           0.00702000           5.34173000         
H                    -0.94490000           2.15310000          -0.33473000         
H                    -2.04533000           1.38286000           0.81088000         
H                    -2.25701000           1.15357000          -0.91780000         
H                    -0.95981000          -2.16173000           0.10044000         
H                    -2.00791000          -1.36130000          -1.07240000         
H                    -2.30252000          -1.16307000           0.64408000         
19
Image 16 energy:-0.00431 
C                     1.52017000          -1.24586000          -0.04051000         
C                     0.67344000          -0.00091000          -0.03733000         
C                     1.51474000           1.24718000           0.02542000         
C                    -0.66220000          -0.00135000          -0.08902000         
C                    -1.50508000           1.24625000          -0.13455000         
C                    -1.50865000          -1.24703000          -0.10379000         
H                     2.05305000          -1.34871000           0.92085000         
H                     2.29271000          -1.16465000          -0.80582000         
H                     0.96691000          -2.16322000          -0.22516000         
H                     2.07576000           1.37998000          -0.90505000         
H                     2.25591000           1.15400000           0.82415000         
H                     0.94774000           2.15538000           0.21003000         
H                    -0.45143000           0.01179000           5.27407000         
H                    -0.94422000           2.15470000          -0.34372000         
H                    -2.04127000           1.38192000           0.80570000         
H                    -2.27406000           1.14520000          -0.91057000         
H                    -0.95916000          -2.15922000           0.10371000         
H                    -2.00653000          -1.36187000          -1.07117000         
H                    -2.30142000          -1.16477000           0.64487000         
19
Image 17 energy:-0.00425 
C                     1.52344000          -1.24386000          -0.03646000         
C                     0.67282000          -0.00119000          -0.03780000         
C                     1.51395000           1.24661000           0.02580000         
C                    -0.66309000          -0.00201000          -0.08877000         
C                    -1.50525000           1.24641000          -0.13453000         
C                    -1.50952000          -1.24745000          -0.10281000         
H                     2.02284000          -1.36664000           0.91479000         
H                     2.30493000          -1.15923000          -0.80570000         
H                     0.97009000          -2.16136000          -0.23675000         
H                     2.07156000           1.38330000          -0.90620000         
H                     2.25844000           1.14997000           0.82113000         
H                     0.94810000           2.15426000           0.21644000         
H                    -0.44186000           0.01421000           5.21495000         
H                    -0.94231000           2.15163000          -0.34312000         
H                    -2.03485000           1.39000000           0.81461000         
H                    -2.27313000           1.14782000          -0.90937000         
H                    -0.95890000          -2.16225000           0.10109000         
H                    -2.00910000          -1.35975000          -1.07056000         
H                    -2.30107000          -1.16414000           0.64869000         
19
Image 18 energy:-0.00427 
C                     1.51977000          -1.24662000          -0.03824000         
C                     0.67292000          -0.00101000          -0.03725000         
C                     1.51434000           1.24719000           0.02738000         
C                    -0.66260000          -0.00155000          -0.08822000         
C                    -1.50624000           1.24597000          -0.13453000         
C                    -1.50876000          -1.24713000          -0.10108000         
H                     2.03671000          -1.36374000           0.93107000         
H                     2.30758000          -1.15206000          -0.78397000         
H                     0.97604000          -2.15510000          -0.25281000         
H                     2.06879000           1.38693000          -0.90593000         
H                     2.26138000           1.14890000           0.82029000         
H                     0.94805000           2.15372000           0.22300000         
H                    -0.43312000           0.01713000           5.15029000         
H                    -0.94579000           2.15137000          -0.34501000         
H                    -2.03509000           1.38910000           0.81480000         
H                    -2.26777000           1.14882000          -0.90753000         
H                    -0.95801000          -2.16200000           0.10538000         
H                    -2.00760000          -1.36350000          -1.06838000         
H                    -2.30149000          -1.16213000           0.64742000         
19
Image 19 energy:-0.00434 
C                     1.52130000          -1.24499000          -0.03649000         
C                     0.67315000          -0.00086000          -0.03670000         
C                     1.51387000           1.24713000           0.02842000         
C                    -0.66249000          -0.00152000          -0.08864000         
C                    -1.50544000           1.24636000          -0.13231000         
C                    -1.50858000          -1.24756000          -0.10063000         
H                     2.00872000          -1.37627000           0.93084000         
H                     2.31891000          -1.15234000          -0.78520000         