25
Image 1 energy:-0.02969 
C                    -1.66839000          -1.66199000          -0.71732000         
C                    -1.02710000          -0.32535000          -0.90941000         
C                    -0.35918000           0.51685000           0.15115000         
C                    -0.45615000           2.00287000          -0.27875000         
C                    -1.07825000           0.39416000           1.51623000         
C                     1.16581000           0.12572000           0.32698000         
C                     1.37324000          -1.31632000           0.82177000         
C                     1.98900000           0.33950000          -0.95610000         
H                    -1.14018000          -2.45591000          -1.28036000         
H                    -2.70915000          -1.67161000          -1.09353000         
H                    -1.69677000          -1.97468000           0.33419000         
H                    -0.96757000           0.04163000          -1.93743000         
H                     0.11730000           2.64809000           0.40379000         
H                    -1.50332000           2.33612000          -0.26359000         
H                    -0.07508000           2.16038000          -1.29644000         
H                    -0.58419000           1.03077000           2.26549000         
H                    -1.08837000          -0.62951000           1.90772000         
H                    -2.12347000           0.72403000           1.42519000         
H                     1.56366000           0.80751000           1.10174000         
H                     1.01130000          -2.04225000           0.07950000         
H                     0.85928000          -1.51517000           1.77105000         
H                     2.44404000          -1.51199000           0.97997000         
H                     3.03803000           0.05243000          -0.78979000         
H                     1.98275000           1.38507000          -1.29092000         
H                     1.59826000          -0.28331000          -1.77546000         
25
Image 2 energy:-0.02944 
C                    -1.66178000          -1.66574000          -0.72067000         
C                    -1.02954000          -0.32422000          -0.90983000         
C                    -0.36318000           0.52079000           0.14891000         
C                    -0.45318000           2.00554000          -0.28359000         
C                    -1.07400000           0.39667000           1.51682000         
C                     1.16006000           0.12076000           0.33070000         
C                     1.37654000          -1.32092000           0.82570000         
C                     1.97980000           0.34318000          -0.95279000         
H                    -1.13040000          -2.44774000          -1.29075000         
H                    -2.70055000          -1.68578000          -1.09012000         
H                    -1.68170000          -1.98908000           0.32452000         
H                    -0.95450000           0.03325000          -1.94093000         
H                     0.17229000           2.64127000           0.36487000         
H                    -1.49063000           2.36450000          -0.21520000         
H                    -0.11965000           2.14688000          -1.32315000         
H                    -0.54807000           0.99507000           2.28213000         
H                    -1.12981000          -0.63707000           1.88198000         
H                    -2.10804000           0.77621000           1.43863000         
H                     1.55703000           0.80315000           1.10671000         
H                     1.00593000          -2.04700000           0.08925000         
H                     0.86989000          -1.51555000           1.77971000         
H                     2.44851000          -1.51825000           0.97309000         
H                     3.03085000           0.06456000          -0.79068000         
H                     1.96388000           1.38976000          -1.28370000         
H                     1.59219000          -0.27994000          -1.77345000         
25
Image 3 energy:-0.02955 
C                    -1.67055000          -1.66025000          -0.71781000         
C                    -1.02870000          -0.32509000          -0.90986000         
C                    -0.35716000           0.51307000           0.15303000         
C                    -0.45468000           2.00085000          -0.27655000         
C                    -1.08330000           0.39307000           1.51671000         
C                     1.16974000           0.12921000           0.32508000         
C                     1.37258000          -1.31284000           0.82146000         
C                     1.99138000           0.33730000          -0.95785000         
H                    -1.13984000          -2.45389000          -1.28277000         
H                    -2.71286000          -1.66910000          -1.09469000         
H                    -1.69649000          -1.97159000           0.33625000         
H                    -0.96962000           0.04537000          -1.93474000         
H                     0.12826000           2.64987000           0.39730000         
H                    -1.50702000           2.33331000          -0.24988000         
H                    -0.09001000           2.15628000          -1.30152000         
H                    -0.58463000           1.02090000           2.26209000         
H                    -1.09386000          -0.62880000           1.90944000         
H                    -2.12070000           0.72764000           1.43174000         
H                     1.56496000           0.81087000           1.09921000         
H                     1.02993000          -2.04301000           0.07167000         
H                     0.84677000          -1.51983000           1.76376000         
H                     2.44296000          -1.50021000           0.99698000         
H                     3.04584000           0.06861000          -0.78470000         
H                     1.96760000           1.38007000          -1.30511000         
H                     1.61132000          -0.30328000          -1.76995000         
25
Image 4 energy:-0.02947 
C                    -1.66806000          -1.65888000          -0.71619000         
C                    -1.02423000          -0.32243000          -0.90984000         
C                    -0.35753000           0.51946000           0.15012000         
C                    -0.46165000           2.00613000          -0.27608000         
C                    -1.07607000           0.39285000           1.51373000         
C                     1.16499000           0.12182000           0.32720000         
C                     1.37803000          -1.31892000           0.82353000         
C                     1.98570000           0.33537000          -0.95846000         
H                    -1.12293000          -2.46973000          -1.24598000         
H                    -2.69940000          -1.66939000          -1.12848000         
H                    -1.73475000          -1.95012000           0.34362000         
H                    -0.97821000           0.05005000          -1.93755000         
H                     0.07981000           2.65217000           0.42600000         
H                    -1.50633000           2.32503000          -0.28937000         
H                    -0.05101000           2.17859000          -1.27725000         
H                    -0.61225000           1.06860000           2.25450000         
H                    -1.04260000          -0.62647000           1.92118000         
H                    -2.14043000           0.67461000           1.40658000         
H                     1.56807000           0.80386000           1.10039000         
H                     1.00901000          -2.04624000           0.08679000         
H                     0.87290000          -1.51584000           1.77730000         
H                     2.45151000          -1.51289000           0.97304000         
H                     3.03099000           0.03628000          -0.79619000         
H                     1.99058000           1.38124000          -1.28702000         
H                     1.58561000          -0.27752000          -1.77999000         
25
Image 5 energy:-0.02944 
C                    -1.66918000          -1.66319000          -0.71816000         
C                    -1.03237000          -0.32392000          -0.90887000         
C                    -0.35957000           0.51447000           0.15258000         
C                    -0.45216000           1.99978000          -0.27280000         
C                    -1.07961000           0.39384000           1.51847000         
C                     1.16893000           0.13006000           0.32472000         
C                     1.37312000          -1.31266000           0.82066000         
C                     1.98788000           0.33846000          -0.96241000         
H                    -1.08542000          -2.47060000          -1.19284000         
H                    -2.66527000          -1.70664000          -1.18308000         
H                    -1.78597000          -1.93374000           0.33494000         
H                    -0.95844000           0.03804000          -1.93669000         
H                     0.06386000           2.65327000           0.45533000         
H                    -1.51392000           2.30880000          -0.32380000         
H                    -0.00957000           2.17257000          -1.26524000         
H                    -0.59220000           1.04548000           2.25827000         
H                    -1.07167000          -0.62654000           1.92177000         
H                    -2.12561000           0.70677000           1.43359000         
H                     1.56748000           0.81298000           1.09614000         
H                     0.97844000          -2.03801000           0.09449000         
H                     0.88668000          -1.49983000           1.78772000         
H                     2.44579000          -1.52213000           0.94451000         
H                     3.02711000           0.00777000          -0.81155000         
H                     2.01995000           1.39052000          -1.27769000         
H                     1.56833000          -0.25359000          -1.79042000         
25
Image 6 energy:-0.02954 
C                    -1.66513000          -1.66389000          -0.72143000         
C                    -1.03245000          -0.32297000          -0.90710000         
C                    -0.35917000           0.51592000           0.15399000         
C                    -0.45794000           2.00305000          -0.27754000         
C                    -1.07113000           0.39430000           1.52252000         
C                     1.16347000           0.12423000           0.32233000         
C                     1.37093000          -1.31555000           0.82190000         
C                     1.98510000           0.34075000          -0.96016000         
H                    -1.04336000          -2.47978000          -1.15198000         
H                    -2.64064000          -1.71889000          -1.24501000         
H                    -1.83835000          -1.91635000           0.33802000         
H                    -0.95174000           0.03620000          -1.93611000         
H                     0.11476000           2.64474000           0.40557000         
H                    -1.49975000           2.34026000          -0.26542000         
H                    -0.07009000           2.16024000          -1.29255000         
H                    -0.55934000           1.01716000           2.27345000         
H                    -1.09039000          -0.63281000           1.90686000         
H                    -2.11482000           0.74262000           1.43815000         
H                     1.56480000           0.80510000           1.09720000         
H                     0.98865000          -2.04834000           0.09640000         
H                     0.87990000          -1.50314000           1.78511000         
H                     2.44493000          -1.51313000           0.95659000         
H                     3.02670000           0.02317000          -0.80167000         
H                     2.00416000           1.39374000          -1.27115000         
H                     1.57429000          -0.25366000          -1.79184000         
25
Image 7 energy:-0.02940 
C                    -1.66584000          -1.66585000          -0.72189000         
C                    -1.03435000          -0.32301000          -0.90845000         
C                    -0.36496000           0.51915000           0.15063000         
C                    -0.45170000           2.00436000          -0.27991000         
C                    -1.07064000           0.39221000           1.51909000         
C                     1.16342000           0.12546000           0.32838000         
C                     1.37437000          -1.31598000           0.82399000         
C                     1.98242000           0.34166000          -0.95661000         
H                    -1.06571000          -2.47430000          -1.19515000         
H                    -2.66439000          -1.71098000          -1.20394000         
H                    -1.79537000          -1.93787000           0.33839000         
H                    -0.95709000           0.03492000          -1.93833000         
H                     0.15917000           2.64934000           0.37775000         
H                    -1.49771000           2.35299000          -0.22774000         
H                    -0.10790000           2.14837000          -1.31445000         
H                    -0.53464000           0.98488000           2.26695000         
H                    -1.11255000          -0.64087000           1.88489000         
H                    -2.09536000           0.76207000           1.46755000         
H                     1.55819000           0.80911000           1.10126000         
H                     1.01593000          -2.04238000           0.07940000         
H                     0.85524000          -1.51610000           1.77136000         
H                     2.44704000          -1.51088000           0.98541000         
H                     3.03372000           0.05668000          -0.79376000         
H                     1.97141000           1.38845000          -1.29145000         
H                     1.59102000          -0.28202000          -1.77514000         
25
Image 8 energy:-0.02946 
C                    -1.66509000          -1.66557000          -0.72079000         
C                    -1.03767000          -0.32212000          -0.90775000         
C                    -0.35372000           0.51264000           0.15396000         
C                    -0.45116000           2.00149000          -0.27406000         
C                    -1.08375000           0.39539000           1.51917000         
C                     1.16888000           0.12836000           0.32388000         
C                     1.37303000          -1.31306000           0.82242000         
C                     1.98879000           0.33837000          -0.96122000         
H                    -1.09719000          -2.46134000          -1.24567000         
H                    -2.68756000          -1.69714000          -1.14606000         
H                    -1.73606000          -1.96244000           0.33575000         
H                    -0.98207000           0.04732000          -1.93489000         
H                     0.15375000           2.63841000           0.38256000         
H                    -1.49450000           2.34315000          -0.22279000         
H                    -0.10955000           2.15555000          -1.30619000         
H                    -0.58300000           1.02241000           2.28308000         
H                    -1.11238000          -0.63373000           1.89967000         
H                    -2.13017000           0.74605000           1.42006000         
H                     1.56922000           0.80941000           1.09658000         
H                     1.02205000          -2.04206000           0.07926000         
H                     0.85110000          -1.51173000           1.76716000         
H                     2.44100000          -1.50614000           0.99194000         
H                     3.03948000           0.06365000          -0.79368000         
H                     1.97303000           1.38221000          -1.30173000         
H                     1.60555000          -0.29249000          -1.77638000         
25
Image 9 energy:-0.02964 
C                    -1.65495000          -1.66301000          -0.71896000         
C                    -1.02591000          -0.32045000          -0.90970000         
C                    -0.36271000           0.52026000           0.15124000         
C                    -0.45867000           2.00720000          -0.27220000         
C                    -1.07814000           0.39556000           1.51684000         
C                     1.16258000           0.12353000           0.32393000         
C                     1.37199000          -1.31639000           0.82410000         
C                     1.98333000           0.32926000          -0.96223000         
H                    -1.12597000          -2.45179000          -1.28624000         
H                    -2.69661000          -1.67700000          -1.08840000         
H                    -1.67630000          -1.97960000           0.33087000         
H                    -0.98021000           0.05566000          -1.93457000         
H                     0.09421000           2.65207000           0.42966000         
H                    -1.50696000           2.33407000          -0.27713000         
H                    -0.05527000           2.17559000          -1.27940000         
H                    -0.57977000           1.02917000           2.26270000         
H                    -1.08896000          -0.62770000           1.90946000         
H                    -2.12012000           0.72809000           1.43131000         
H                     1.56408000           0.80835000           1.09498000         
H                     1.01821000          -2.04732000           0.08181000         
H                     0.85317000          -1.51575000           1.77097000         
H                     2.44424000          -1.50454000           0.98866000         
H                     3.03518000           0.05213000          -0.79142000         
H                     1.96905000           1.36959000          -1.30914000         
H                     1.59588000          -0.30549000          -1.77468000         
25
Image 10 energy:-0.02955 
C                    -1.66084000          -1.66379000          -0.72453000         
C                    -1.03299000          -0.31919000          -0.91227000         
C                    -0.35631000           0.51654000           0.15125000         
C                    -0.45494000           2.00615000          -0.27165000         
C                    -1.08254000           0.38956000           1.51630000         
C                     1.16776000           0.12879000           0.32613000         
C                     1.37697000          -1.30819000           0.83291000         
C                     1.98246000           0.32734000          -0.96394000         
H                    -1.16175000          -2.43986000          -1.33682000         
H                    -2.72180000          -1.66985000          -1.04229000         
H                    -1.63108000          -2.00228000           0.31858000         
H                    -0.98917000           0.05762000          -1.93793000         
H                     0.08748000           2.65334000           0.43902000         
H                    -1.51415000           2.32490000          -0.29631000         
H                    -0.03556000           2.17720000          -1.27222000         
H                    -0.59512000           1.03774000           2.26515000         
H                    -1.06786000          -0.63658000           1.90719000         
H                    -2.13721000           0.69881000           1.42615000         
H                     1.56868000           0.81867000           1.09262000         
H                     0.98821000          -2.03856000           0.10858000         
H                     0.89066000          -1.49018000           1.79994000         
H                     2.44793000          -1.51329000           0.96065000         
H                     3.02499000           0.02163000          -0.81116000         
H                     1.99386000           1.37213000          -1.30058000         
H                     1.57130000          -0.29098000          -1.77534000         
25
Image 11 energy:-0.02954 
C                    -1.65155000          -1.66743000          -0.72836000         
C                    -1.03227000          -0.31973000          -0.91049000         
C                    -0.36568000           0.51814000           0.15204000         
C                    -0.45258000           2.00392000          -0.27303000         
C                    -1.07595000           0.39037000           1.51867000         
C                     1.16340000           0.12783000           0.32408000         
C                     1.37026000          -1.30782000           0.83711000         
C                     1.97826000           0.33123000          -0.96585000         
H                    -1.14286000          -2.43874000          -1.34188000         
H                    -2.71137000          -1.67729000          -1.05458000         
H                    -1.62536000          -2.01023000           0.31457000         
H                    -0.97215000           0.05140000          -1.93774000         
H                     0.13863000           2.63576000           0.40330000         
H                    -1.48751000           2.35687000          -0.24425000         
H                    -0.07916000           2.15422000          -1.29527000         
H                    -0.54974000           0.98468000           2.28095000         
H                    -1.12890000          -0.64273000           1.88180000         
H                    -2.10451000           0.76922000           1.44521000         
H                     1.56147000           0.81808000           1.08898000         
H                     0.97449000          -2.04612000           0.12477000         
H                     0.88714000          -1.48197000           1.80804000         
H                     2.44584000          -1.51124000           0.96142000         
H                     3.02604000           0.02830000          -0.80632000         
H                     1.98292000           1.37875000          -1.29573000         
H                     1.57236000          -0.28017000          -1.78736000         
25
Image 12 energy:-0.02929 
C                    -1.65557000          -1.66488000          -0.72842000         
C                    -1.03480000          -0.31620000          -0.90923000         
C                    -0.35604000           0.51776000           0.15204000         
C                    -0.45796000           2.00915000          -0.27156000         
C                    -1.08035000           0.39087000           1.51789000         
C                     1.16410000           0.12305000           0.32138000         
C                     1.37785000          -1.31071000           0.83797000         
C                     1.98254000           0.32647000          -0.96667000         
H                    -1.12223000          -2.44231000          -1.31038000         
H                    -2.70175000          -1.68776000          -1.09052000         
H                    -1.66329000          -1.99485000           0.31811000         
H                    -0.98661000           0.05819000          -1.93514000         
H                     0.15492000           2.66361000           0.38288000         
H                    -1.51583000           2.34389000          -0.20286000         
H                    -0.13536000           2.16528000          -1.31260000         
H                    -0.54900000           0.97201000           2.28471000         
H                    -1.15044000          -0.64282000           1.87822000         
H                    -2.10687000           0.78141000           1.44292000         
H                     1.57447000           0.81189000           1.08796000         
H                     1.02433000          -2.04865000           0.10790000         
H                     0.86012000          -1.49448000           1.78531000         
H                     2.44478000          -1.50151000           1.00926000         
H                     3.03564000           0.06547000          -0.80331000         
H                     1.95483000           1.36483000          -1.31435000         
H                     1.59961000          -0.31326000          -1.77310000         
25
Image 13 energy:-0.02942 
C                    -1.65738000          -1.66268000          -0.72677000         
C                    -1.03390000          -0.31610000          -0.91178000         
C                    -0.36260000           0.51677000           0.14988000         
C                    -0.45348000           2.00623000          -0.26613000         
C                    -1.07861000           0.38757000           1.51763000         
C                     1.16721000           0.13027000           0.32463000         
C                     1.37714000          -1.30453000           0.83263000         
C                     1.97800000           0.32014000          -0.96711000         
H                    -1.11364000          -2.45268000          -1.28119000         
H                    -2.69363000          -1.68668000          -1.11272000         
H                    -1.69165000          -1.97229000           0.32513000         
H                    -0.99478000           0.06743000          -1.93347000         
H                     0.13086000           2.63284000           0.41225000         
H                    -1.48867000           2.34889000          -0.23619000         
H                    -0.08311000           2.17799000          -1.28233000         
H                    -0.57506000           1.01496000           2.26804000         
H                    -1.08916000          -0.63914000           1.90187000         
H                    -2.12195000           0.72185000           1.43902000         
H                     1.55906000           0.82507000           1.08625000         
H                     1.04755000          -2.03970000           0.07895000         
H                     0.83897000          -1.51040000           1.77139000         
H                     2.44970000          -1.48261000           1.01825000         
H                     3.03802000           0.07136000          -0.78800000         
H                     1.93950000           1.35249000          -1.35070000         
H                     1.60548000          -0.35427000          -1.75674000         
25
Image 14 energy:-0.02937 
C                    -1.65823000          -1.65865000          -0.72789000         
C                    -1.03301000          -0.31380000          -0.91003000         
C                    -0.35983000           0.51670000           0.15248000         
C                    -0.45757000           2.00445000          -0.26261000         
C                    -1.07528000           0.38792000           1.51708000         
C                     1.15753000           0.12881000           0.31864000         
C                     1.38191000          -1.30478000           0.83540000         
C                     1.98059000           0.31591000          -0.97044000         
H                    -1.10541000          -2.45143000          -1.26917000         
H                    -2.68680000          -1.68100000          -1.13344000         
H                    -1.71238000          -1.96417000           0.32476000         
H                    -1.00144000           0.07598000          -1.93141000         
H                     0.07217000           2.65472000           0.46248000         
H                    -1.51906000           2.31450000          -0.29362000         
H                    -0.02617000           2.17721000          -1.26212000         
H                    -0.59032000           1.03966000           2.26666000         
H                    -1.06588000          -0.63791000           1.90999000         
H                    -2.12776000           0.70202000           1.41843000         
H                     1.56694000           0.82358000           1.08141000         
H                     1.02479000          -2.04858000           0.10490000         
H                     0.87282000          -1.49631000           1.79203000         
H                     2.46210000          -1.47850000           0.98875000         
H                     3.03591000           0.04388000          -0.78338000         
H                     1.96243000           1.35315000          -1.34061000         
H                     1.59865000          -0.33843000          -1.77176000         
25
Image 15 energy:-0.02962 
C                    -1.65168000          -1.66323000          -0.73087000         
C                    -1.02865000          -0.31615000          -0.91097000         