22
Image 1 energy:-0.00834 
C                     2.08997000           1.37291000           0.07993000         
C                     1.75839000           0.23630000          -0.54884000         
C                     2.12556000          -1.14330000          -0.07949000         
C                    -1.35009000          -0.09614000           0.09279000         
C                    -1.60873000           1.29955000          -0.38445000         
C                    -1.76446000          -1.24868000          -0.77042000         
C                    -1.11775000          -0.31257000           1.55622000         
H                     2.65527000           1.36417000           1.01560000         
H                     1.80634000           2.35071000          -0.31165000         
H                     1.19428000           0.29115000          -1.48487000         
H                     2.65904000          -1.11116000           0.88067000         
H                     2.76986000          -1.65610000          -0.81697000         
H                     1.22948000          -1.76943000           0.04622000         
H                    -1.43444000           1.40250000          -1.46549000         
H                    -0.96813000           2.02551000           0.13629000         
H                    -2.65767000           1.61011000          -0.20376000         
H                    -2.85394000          -1.44912000          -0.71612000         
H                    -1.26388000          -2.18166000          -0.47273000         
H                    -1.53843000          -1.06407000          -1.83179000         
H                    -2.04459000          -0.18015000           2.14985000         
H                    -0.38614000           0.40726000           1.95134000         
H                    -0.74943000          -1.32649000           1.76934000         
22
Image 2 energy:-0.00825 
C                     2.08418000           1.36985000           0.08912000         
C                     1.75672000           0.23516000          -0.54759000         
C                     2.12379000          -1.14526000          -0.08328000         
C                    -1.34898000          -0.09352000           0.08942000         
C                    -1.60752000           1.30194000          -0.38900000         
C                    -1.76261000          -1.25126000          -0.76704000         
C                    -1.11309000          -0.30734000           1.55356000         
H                     2.64844000           1.35612000           1.02545000         
H                     1.80061000           2.34980000          -0.29708000         
H                     1.18594000           0.29563000          -1.48069000         
H                     2.66170000          -1.11749000           0.87349000         
H                     2.76043000          -1.66062000          -0.83123000         
H                     1.22800000          -1.76997000           0.04413000         
H                    -1.47778000           1.38997000          -1.48365000         
H                    -0.92519000           2.02152000           0.10176000         
H                    -2.64765000           1.63164000          -0.16214000         
H                    -2.84265000          -1.48511000          -0.67787000         
H                    -1.22659000          -2.17186000          -0.49193000         
H                    -1.57591000          -1.05666000          -1.83249000         
H                    -2.05331000          -0.22843000           2.14582000         
H                    -0.41787000           0.44886000           1.95697000         
H                    -0.69570000          -1.30801000           1.76205000         
22
Image 3 energy:-0.00826 
C                     2.08720000           1.37124000           0.09178000         
C                     1.75904000           0.23918000          -0.54808000         
C                     2.12110000          -1.14761000          -0.09202000         
C                    -1.34785000          -0.09433000           0.09508000         
C                    -1.60967000           1.29752000          -0.39448000         
C                    -1.76079000          -1.24986000          -0.76366000         
C                    -1.11484000          -0.30804000           1.55873000         
H                     2.64839000           1.35789000           1.02854000         
H                     1.79935000           2.35108000          -0.29206000         
H                     1.19592000           0.30099000          -1.48277000         
H                     2.64903000          -1.12710000           0.87384000         
H                     2.77086000          -1.64854000          -0.81961000         
H                     1.21810000          -1.77031000           0.02256000         
H                    -1.40449000           1.39205000          -1.47499000         
H                    -0.98480000           2.03123000           0.13555000         
H                    -2.66818000           1.60824000          -0.25010000         
H                    -2.83743000          -1.48550000          -0.65225000         
H                    -1.21750000          -2.16976000          -0.50608000         
H                    -1.59991000          -1.04344000          -1.83105000         
H                    -2.04191000          -0.16800000           2.15409000         
H                    -0.37463000           0.40778000           1.95243000         
H                    -0.75060000          -1.32369000           1.76887000         
22
Image 4 energy:-0.00784 
C                     2.08334000           1.37153000           0.08994000         
C                     1.76497000           0.23902000          -0.55489000         
C                     2.12015000          -1.14400000          -0.08934000         
C                    -1.34886000          -0.09670000           0.09786000         
C                    -1.60700000           1.29516000          -0.39090000         
C                    -1.76073000          -1.24922000          -0.76522000         
C                    -1.11653000          -0.30668000           1.56203000         
H                     2.64851000           1.35262000           1.02648000         
H                     1.79848000           2.35144000          -0.29473000         
H                     1.19901000           0.30376000          -1.49311000         
H                     2.63099000          -1.12525000           0.87861000         
H                     2.77410000          -1.66642000          -0.83249000         
H                     1.22316000          -1.76717000           0.00801000         
H                    -1.34392000           1.41223000          -1.44837000         
H                    -1.04398000           2.04058000           0.18139000         
H                    -2.67429000           1.56837000          -0.30569000         
H                    -2.84957000          -1.49012000          -0.65874000         
H                    -1.20633000          -2.17341000          -0.50357000         
H                    -1.59039000          -1.03346000          -1.84030000         
H                    -2.03007000          -0.09949000           2.15997000         
H                    -0.33260000           0.37145000           1.94155000         
H                    -0.81469000          -1.34432000           1.78245000         
22
Image 5 energy:-0.00800 
C                     2.08393000           1.37380000           0.09004000         
C                     1.76292000           0.24162000          -0.55581000         
C                     2.12020000          -1.14743000          -0.09846000         
C                    -1.35291000          -0.10005000           0.10094000         
C                    -1.60620000           1.29357000          -0.39020000         
C                    -1.76144000          -1.25146000          -0.76589000         
C                    -1.11466000          -0.30454000           1.56643000         
H                     2.62952000           1.35833000           1.03616000         
H                     1.80628000           2.35573000          -0.29799000         
H                     1.21654000           0.30726000          -1.50030000         
H                     2.63346000          -1.12628000           0.87705000         
H                     2.78837000          -1.64284000          -0.80481000         
H                     1.20944000          -1.76932000           0.00217000         
H                    -1.29836000           1.42123000          -1.44247000         
H                    -1.06427000           2.03725000           0.21330000         
H                    -2.68479000           1.55920000          -0.34116000         
H                    -2.85594000          -1.43688000          -0.73153000         
H                    -1.27799000          -2.19251000          -0.45930000         
H                    -1.51362000          -1.06731000          -1.82394000         
H                    -2.01184000          -0.08641000           2.17424000         
H                    -0.32256000           0.36299000           1.93062000         
H                    -0.82408000          -1.33681000           1.79841000         
22
Image 6 energy:-0.00797 
C                     2.08268000           1.37169000           0.09068000         
C                     1.76494000           0.24284000          -0.55777000         
C                     2.12009000          -1.14145000          -0.09458000         
C                    -1.35837000          -0.10214000           0.10146000         
C                    -1.60811000           1.29312000          -0.38771000         
C                    -1.76115000          -1.25309000          -0.76699000         
C                    -1.11071000          -0.30533000           1.56493000         
H                     2.63052000           1.35161000           1.03546000         
H                     1.80929000           2.35385000          -0.29624000         
H                     1.21005000           0.30833000          -1.50185000         
H                     2.62911000          -1.11662000           0.87626000         
H                     2.77699000          -1.65636000          -0.83429000         
H                     1.22731000          -1.76784000           0.00204000         
H                    -1.32535000           1.41679000          -1.45213000         
H                    -1.03503000           2.02980000           0.20256000         
H                    -2.68784000           1.57807000          -0.31226000         
H                    -2.86089000          -1.38925000          -0.80856000         
H                    -1.33927000          -2.20352000          -0.40768000         
H                    -1.43426000          -1.10796000          -1.80825000         
H                    -2.00380000          -0.05966000           2.17815000         
H                    -0.29740000           0.34792000           1.92243000         
H                    -0.83963000          -1.34290000           1.79951000         
22
Image 7 energy:-0.00806 
C                     2.08419000           1.37197000           0.09757000         
C                     1.76108000           0.24189000          -0.55245000         
C                     2.12374000          -1.14525000          -0.09885000         
C                    -1.35407000          -0.09892000           0.09888000         
C                    -1.61478000           1.29149000          -0.39149000         
C                    -1.76426000          -1.25281000          -0.76524000         
C                    -1.10375000          -0.30204000           1.55983000         
H                     2.63840000           1.34843000           1.04055000         
H                     1.80115000           2.35608000          -0.28185000         
H                     1.20713000           0.31165000          -1.49590000         
H                     2.63708000          -1.12360000           0.87370000         
H                     2.78372000          -1.63730000          -0.81847000         
H                     1.21208000          -1.76929000           0.01011000         
H                    -1.41825000           1.39045000          -1.47241000         
H                    -0.99133000           2.02323000           0.14065000         
H                    -2.67111000           1.59148000          -0.23670000         
H                    -2.86478000          -1.36985000          -0.83121000         
H                    -1.36758000          -2.20755000          -0.38892000         
H                    -1.41122000          -1.12681000          -1.80283000         
H                    -2.00961000          -0.07442000           2.16806000         
H                    -0.30272000           0.36762000           1.92542000         
H                    -0.81649000          -1.34619000           1.78611000         
22
Image 8 energy:-0.00808 
C                     2.09159000           1.37130000           0.09870000         
C                     1.76263000           0.24366000          -0.54561000         
C                     2.12163000          -1.14457000          -0.09523000         
C                    -1.36001000          -0.09993000           0.09765000         
C                    -1.62194000           1.29137000          -0.39466000         
C                    -1.76672000          -1.25386000          -0.76766000         
C                    -1.09805000          -0.30131000           1.55862000         
H                     2.64367000           1.35664000           1.04163000         
H                     1.80134000           2.35344000          -0.28279000         
H                     1.20513000           0.31013000          -1.48205000         
H                     2.65277000          -1.13807000           0.86843000         
H                     2.76549000          -1.65565000          -0.83602000         
H                     1.23204000          -1.76594000           0.00168000         
H                    -1.46932000           1.36813000          -1.48638000         
H                    -0.94781000           2.01559000           0.09331000         
H                    -2.66336000           1.62889000          -0.19224000         
H                    -2.86524000          -1.35680000          -0.83952000         
H                    -1.38518000          -2.21036000          -0.39036000         
H                    -1.40962000          -1.12608000          -1.80004000         
H                    -2.01218000          -0.14141000           2.17574000         
H                    -0.34098000           0.41468000           1.92877000         
H                    -0.74421000          -1.32324000           1.77366000         
22
Image 9 energy:-0.00808 
C                     2.09724000           1.37216000           0.10338000         
C                     1.76761000           0.24050000          -0.54066000         
C                     2.13500000          -1.14913000          -0.09850000         
C                    -1.35974000          -0.09732000           0.09254000         
C                    -1.63097000           1.29315000          -0.39722000         
C                    -1.77298000          -1.25348000          -0.76430000         
C                    -1.10212000          -0.29927000           1.55466000         
H                     2.67393000           1.35414000           1.03156000         
H                     1.81000000           2.35046000          -0.27816000         
H                     1.18318000           0.31332000          -1.46700000         
H                     2.68179000          -1.13486000           0.85042000         
H                     2.75868000          -1.65695000          -0.85199000         
H                     1.21601000          -1.76344000           0.04364000         
H                    -1.52343000           1.37119000          -1.48834000         
H                    -0.94165000           2.01673000           0.06060000         
H                    -2.65923000           1.63368000          -0.15498000         
H                    -2.88355000          -1.35722000          -0.82804000         
H                    -1.38377000          -2.21122000          -0.37831000         
H                    -1.41692000          -1.13010000          -1.80717000         
H                    -2.02842000          -0.21302000           2.16104000         
H                    -0.39812000           0.45438000           1.94349000         
H                    -0.68435000          -1.29651000           1.75972000         
22
Image 10 energy:-0.00800 
C                     2.11210000           1.37020000           0.09876000         
C                     1.76069000           0.24240000          -0.53446000         
C                     2.13207000          -1.14647000          -0.09173000         
C                    -1.35303000          -0.09432000           0.08551000         
C                    -1.63314000           1.29625000          -0.39656000         
C                    -1.77775000          -1.25505000          -0.76212000         
C                    -1.10603000          -0.30268000           1.54815000         
H                     2.69378000           1.34884000           1.02275000         
H                     1.81277000           2.35742000          -0.26618000         
H                     1.18140000           0.30625000          -1.45597000         
H                     2.69772000          -1.13810000           0.85675000         
H                     2.75871000          -1.65230000          -0.84568000         
H                     1.24798000          -1.76973000           0.02739000         
H                    -1.57011000           1.36974000          -1.49252000         
H                    -0.93488000           2.01974000           0.03732000         
H                    -2.64935000           1.62847000          -0.11809000         
H                    -2.88754000          -1.38494000          -0.76862000         
H                    -1.34905000          -2.20745000          -0.39476000         
H                    -1.47550000          -1.12195000          -1.82123000         
H                    -2.04121000          -0.25587000           2.14143000         
H                    -0.43783000           0.47043000           1.95084000         
H                    -0.65339000          -1.28417000           1.75090000         
22
Image 11 energy:-0.00815 
C                     2.10732000           1.36877000           0.09589000         
C                     1.76168000           0.23689000          -0.53548000         
C                     2.14264000          -1.14600000          -0.08521000         
C                    -1.35276000          -0.09492000           0.08248000         
C                    -1.63132000           1.29964000          -0.39382000         
C                    -1.78056000          -1.25266000          -0.76558000         
C                    -1.10983000          -0.30485000           1.54595000         
H                     2.70032000           1.34859000           1.01558000         
H                     1.82114000           2.35215000          -0.27971000         
H                     1.16269000           0.30285000          -1.45489000         
H                     2.69531000          -1.11674000           0.85595000         
H                     2.76073000          -1.65425000          -0.84340000         
H                     1.23878000          -1.76773000           0.07384000         
H                    -1.57224000           1.37504000          -1.49333000         
H                    -0.91471000           2.02397000           0.04017000         
H                    -2.65413000           1.64508000          -0.10222000         
H                    -2.87369000          -1.43431000          -0.69718000         
H                    -1.29014000          -2.19050000          -0.45717000         
H                    -1.56227000          -1.08398000          -1.83342000         
H                    -2.05050000          -0.27343000           2.13644000         
H                    -0.45259000           0.48013000           1.95188000         
H                    -0.64195000          -1.27945000           1.75138000         
22
Image 12 energy:-0.00816 
C                     2.09789000           1.37079000           0.08402000         
C                     1.75661000           0.23175000          -0.53695000         
C                     2.13635000          -1.14794000          -0.07305000         
C                    -1.34330000          -0.08993000           0.08191000         
C                    -1.62513000           1.30191000          -0.38867000         
C                    -1.77685000          -1.24564000          -0.76870000         
C                    -1.10874000          -0.31078000           1.54526000         
H                     2.68395000           1.36211000           1.00755000         
H                     1.80622000           2.34853000          -0.29994000         
H                     1.17824000           0.28485000          -1.46150000         
H                     2.71250000          -1.11682000           0.87794000         
H                     2.76323000          -1.66202000          -0.82917000         
H                     1.24305000          -1.77240000           0.06948000         
H                    -1.53898000           1.39418000          -1.48265000         
H                    -0.94751000           2.03037000           0.07779000         
H                    -2.65657000           1.61481000          -0.13001000         
H                    -2.85848000          -1.47253000          -0.64891000         
H                    -1.24036000          -2.17141000          -0.50644000         
H                    -1.61858000          -1.04753000          -1.84058000         
H                    -2.05468000          -0.28017000           2.12691000         
H                    -0.45145000           0.46763000           1.96374000         
H                    -0.64971000          -1.29127000           1.74474000         
22
Image 13 energy:-0.00821 
C                     2.08305000           1.37273000           0.06769000         
C                     1.75815000           0.22462000          -0.54682000         
C                     2.13908000          -1.14724000          -0.06016000         
C                    -1.34648000          -0.08844000           0.08640000         
C                    -1.61526000           1.30912000          -0.37858000         
C                    -1.77039000          -1.23908000          -0.77456000         
C                    -1.11146000          -0.32180000           1.54750000         
H                     2.65947000           1.37823000           0.99700000         
H                     1.78363000           2.34675000          -0.32725000         
H                     1.17928000           0.26444000          -1.47536000         
H                     2.65704000          -1.09841000           0.89551000         
H                     2.78962000          -1.66544000          -0.77913000         
H                     1.24889000          -1.77864000           0.07300000         
H                    -1.49783000           1.40107000          -1.47211000         
H                    -0.94120000           2.03507000           0.10628000         
H                    -2.65285000           1.62888000          -0.14156000         
H                    -2.84729000          -1.48590000          -0.64573000         
H                    -1.21501000          -2.15909000          -0.52900000         
H                    -1.62658000          -1.02528000          -1.84570000         
H                    -2.05523000          -0.27829000           2.13265000         
H                    -0.43892000           0.44082000           1.97082000         
H                    -0.67065000          -1.31287000           1.73750000         
22
Image 14 energy:-0.00822 
C                     2.06526000           1.37144000           0.05308000         
C                     1.74158000           0.21659000          -0.54617000         
C                     2.13014000          -1.14847000          -0.04970000         
C                    -1.33770000          -0.08622000           0.08877000         
C                    -1.60942000           1.31427000          -0.36937000         
C                    -1.75118000          -1.23241000          -0.78296000         
C                    -1.10831000          -0.32716000           1.54958000         
H                     2.63464000           1.39131000           0.98614000         
H                     1.77325000           2.33689000          -0.36255000         
H                     1.17533000           0.24288000          -1.48413000         
H                     2.67965000          -1.08865000           0.91050000         
H                     2.77951000          -1.66486000          -0.78130000         
H                     1.24097000          -1.78327000           0.09176000         
H                    -1.45635000           1.41877000          -1.45796000         
H                    -0.94448000           2.03710000           0.13861000         
H                    -2.65691000           1.63582000          -0.15846000         
H                    -2.82691000          -1.47741000          -0.66278000         
H                    -1.19793000          -2.15086000          -0.53834000         
H                    -1.60069000          -1.01441000          -1.85190000         
H                    -2.05092000          -0.27536000           2.13602000         
H                    -0.42669000           0.42763000           1.97311000         
H                    -0.67478000          -1.32195000           1.73713000         
22
Image 15 energy:-0.00823 
C                     2.04386000           1.36911000           0.04331000         
C                     1.73810000           0.20772000          -0.55520000         
C                     2.12240000          -1.15197000          -0.04160000         
C                    -1.32970000          -0.08251000           0.09165000         
C                    -1.60768000           1.31819000          -0.35871000         
C                    -1.73087000          -1.22537000          -0.78982000         
C                    -1.10423000          -0.32684000           1.55210000         
H                     2.60377000           1.39590000           0.98323000         
H                     1.75248000           2.32954000          -0.38284000         
H                     1.18761000           0.22744000          -1.50184000         
H                     2.62712000          -1.08718000           0.92973000         
H                     2.79626000          -1.67169000          -0.74596000         
H                     1.23330000          -1.79212000           0.07741000         
H                    -1.44805000           1.44406000          -1.43984000         
H                    -0.97070000           2.03661000           0.16722000         
H                    -2.65361000           1.61410000          -0.16350000         
H                    -2.80678000          -1.48154000          -0.67667000         
H                    -1.16945000          -2.14206000          -0.55015000         
H                    -1.57899000          -0.99505000          -1.85814000         
H                    -2.04386000          -0.25232000           2.14005000         
H                    -0.40649000           0.41460000           1.97345000         
H                    -0.69293000          -1.33015000           1.74164000         
22
Image 16 energy:-0.00822 
C                     2.02537000           1.36669000           0.03651000         
C                     1.72870000           0.20302000          -0.56135000         
C                     2.10529000          -1.15452000          -0.03633000         
C                    -1.32489000          -0.08149000           0.09535000         
C                    -1.60090000           1.32124000          -0.35235000         
C                    -1.70788000          -1.22182000          -0.79630000         
C                    -1.09687000          -0.32713000           1.55557000         
H                     2.55611000           1.40130000           0.99074000         
H                     1.73117000           2.32695000          -0.39332000         
H                     1.19147000           0.21641000          -1.51379000         
H                     2.60704000          -1.07984000           0.94286000         
H                     2.79158000          -1.66526000          -0.73073000         
H                     1.22372000          -1.80206000           0.07207000         
H                    -1.45668000           1.43784000          -1.43806000         
H                    -0.93957000           2.04142000           0.15923000         
H                    -2.64753000           1.63747000          -0.13369000         
H                    -2.79027000          -1.47942000          -0.71205000         
H                    -1.15166000          -2.14336000          -0.54745000         
H                    -1.52641000          -0.98478000          -1.85983000         
H                    -2.03275000          -0.23441000           2.14508000         
H                    -0.38781000           0.40283000           1.97485000         