22
Image 1 energy:-0.00161 
C                     1.47061000           1.32642000           0.12645000         
C                     0.78941000          -0.00253000          -0.13975000         
C                     1.49029000          -1.26919000           0.30868000         
C                    -0.41183000          -0.03850000          -0.77826000         
C                    -1.01421000           0.05882000           2.52529000         
C                    -1.11478000           1.24869000          -1.15967000         
C                    -1.13016000          -1.33579000          -1.07131000         
H                     2.40258000           1.19047000           0.68174000         
H                     0.81894000           1.98896000           0.70921000         
H                     1.71616000           1.86942000          -0.79982000         
H                     1.82450000          -1.89206000          -0.54822000         
H                     0.81505000          -1.90179000           0.91619000         
H                     2.39193000          -1.04270000           0.92544000         
H                    -0.19147000           0.59212000           3.03056000         
H                    -1.02543000          -1.03243000           2.50759000         
H                    -1.80703000           0.62265000           2.03640000         
H                    -0.47640000           1.87492000          -1.79477000         
H                    -1.36389000           1.86961000          -0.27797000         
H                    -2.05674000           1.05473000          -1.69618000         
H                    -1.71786000          -1.69599000          -0.20067000         
H                    -0.43251000          -2.14592000          -1.33737000         
H                    -1.84253000          -1.20826000          -1.90678000         
22
Image 2 energy:-0.00039 
C                     1.46604000           1.32633000           0.13790000         
C                     0.79315000          -0.00325000          -0.14838000         
C                     1.49276000          -1.27443000           0.30789000         
C                    -0.41157000          -0.03648000          -0.77048000         
C                    -1.00548000           0.06005000           2.52435000         
C                    -1.11575000           1.24570000          -1.16851000         
C                    -1.13560000          -1.33151000          -1.06749000         
H                     2.42117000           1.22846000           0.69794000         
H                     0.80835000           1.99845000           0.74253000         
H                     1.68153000           1.86906000          -0.81561000         
H                     1.85711000          -1.89282000          -0.51258000         
H                     0.82063000          -1.91198000           0.87614000         
H                     2.33360000          -1.04111000           0.94184000         
H                    -0.15927000           0.54605000           2.97725000         
H                    -1.04611000          -1.02352000           2.50677000         
H                    -1.79963000           0.65901000           2.02691000         
H                    -0.48749000           1.89579000          -1.81395000         
H                    -1.37440000           1.84037000          -0.26146000         
H                    -2.05256000           1.03379000          -1.71991000         
H                    -1.73815000          -1.68484000          -0.21799000         
H                    -0.44424000          -2.15303000          -1.31611000         
H                    -1.81549000          -1.20176000          -1.91229000         
22
Image 3 energy:-0.00118 
C                     1.46158000           1.32595000           0.15188000         
C                     0.79331000          -0.00338000          -0.15064000         
C                     1.49513000          -1.27643000           0.29904000         
C                    -0.40963000          -0.03443000          -0.76701000         
C                    -1.01075000           0.06573000           2.52024000         
C                    -1.12018000           1.24363000          -1.17654000         
C                    -1.13357000          -1.33353000          -1.05978000         
H                     2.40866000           1.21233000           0.66967000         
H                     0.83966000           1.97359000           0.77876000         
H                     1.65212000           1.89626000          -0.76853000         
H                     1.86877000          -1.88109000          -0.55468000         
H                     0.81151000          -1.94008000           0.87696000         
H                     2.36425000          -1.04452000           0.94946000         
H                    -0.11482000           0.53385000           2.92979000         
H                    -1.07001000          -1.01657000           2.50315000         
H                    -1.72483000           0.67288000           2.02163000         
H                    -0.48607000           1.89631000          -1.79690000         
H                    -1.40666000           1.82626000          -0.29152000         
H                    -2.02998000           1.05380000          -1.74789000         
H                    -1.73767000          -1.65558000          -0.19218000         
H                    -0.45200000          -2.16128000          -1.28785000         
H                    -1.82660000          -1.21767000          -1.91324000         
22
Image 4 energy:-0.00161 
C                     1.46251000           1.32546000           0.15786000         
C                     0.79669000          -0.00283000          -0.14849000         
C                     1.49869000          -1.27825000           0.28237000         
C                    -0.40575000          -0.03361000          -0.78337000         
C                    -1.02339000           0.07196000           2.53808000         
C                    -1.12306000           1.24244000          -1.17873000         
C                    -1.13266000          -1.33638000          -1.04646000         
H                     2.42084000           1.17541000           0.67703000         
H                     0.83505000           1.96252000           0.80146000         
H                     1.66100000           1.91506000          -0.74441000         
H                     1.88496000          -1.84747000          -0.57588000         
H                     0.84045000          -1.95522000           0.83275000         
H                     2.34023000          -1.06382000           0.93967000         
H                    -0.10107000           0.53010000           2.91987000         
H                    -1.08368000          -1.02115000           2.48486000         
H                    -1.73052000           0.70142000           1.97978000         
H                    -0.47043000           1.88922000          -1.78576000         
H                    -1.42471000           1.84231000          -0.30378000         
H                    -2.04154000           1.04852000          -1.76067000         
H                    -1.73614000          -1.63184000          -0.17218000         
H                    -0.44801000          -2.17059000          -1.26519000         
H                    -1.81603000          -1.24106000          -1.89942000         
22
Image 5 energy:-0.00035 
C                     1.46726000           1.32254000           0.15468000         
C                     0.79908000          -0.00086000          -0.15911000         
C                     1.50018000          -1.27654000           0.26787000         
C                    -0.40762000          -0.03489000          -0.77384000         
C                    -1.03944000           0.08024000           2.54283000         
C                    -1.12164000           1.24002000          -1.17159000         
C                    -1.12595000          -1.33924000          -1.04223000         
H                     2.45110000           1.15707000           0.68697000         
H                     0.82033000           1.93198000           0.81391000         
H                     1.69011000           1.92852000          -0.76169000         
H                     1.88905000          -1.81829000          -0.61331000         
H                     0.83191000          -1.96460000           0.82604000         
H                     2.36212000          -1.06072000           0.93705000         
H                    -0.15100000           0.50064000           2.96047000         
H                    -1.11683000          -1.00169000           2.45679000         
H                    -1.71022000           0.71626000           2.00168000         
H                    -0.47153000           1.89902000          -1.77407000         
H                    -1.43748000           1.85781000          -0.30173000         
H                    -2.02394000           1.01206000          -1.76360000         
H                    -1.73727000          -1.61945000          -0.15660000         
H                    -0.44299000          -2.17624000          -1.25308000         
H                    -1.80904000          -1.25855000          -1.89919000         
22
Image 6 energy:0.00068 
C                     1.48566000           1.31635000           0.14962000         
C                     0.79881000           0.00054000          -0.16277000         
C                     1.50158000          -1.27254000           0.26745000         
C                    -0.40925000          -0.03439000          -0.76850000         
C                    -1.04658000           0.07899000           2.54563000         
C                    -1.12409000           1.24116000          -1.16846000         
C                    -1.12365000          -1.34178000          -1.04326000         
H                     2.42783000           1.18190000           0.61167000         
H                     0.81832000           1.93663000           0.84313000         
H                     1.65769000           1.91594000          -0.76351000         
H                     1.91188000          -1.81803000          -0.61504000         
H                     0.80710000          -1.94651000           0.79361000         
H                     2.34106000          -1.07514000           0.94324000         
H                    -0.16503000           0.52433000           3.03885000         
H                    -1.13432000          -1.01062000           2.46486000         
H                    -1.72784000           0.73165000           1.98369000         
H                    -0.48639000           1.92005000          -1.76806000         
H                    -1.44581000           1.83496000          -0.28962000         
H                    -2.00581000           1.00735000          -1.76695000         
H                    -1.74391000          -1.61935000          -0.18556000         
H                    -0.43008000          -2.16485000          -1.23711000         
H                    -1.80678000          -1.27944000          -1.90657000         
22
Image 7 energy:-0.00013 
C                     1.47933000           1.32089000           0.12801000         
C                     0.79973000          -0.00208000          -0.16322000         
C                     1.50573000          -1.27304000           0.27338000         
C                    -0.40765000          -0.03567000          -0.76901000         
C                    -1.05560000           0.07922000           2.54908000         
C                    -1.12205000           1.24452000          -1.15591000         
C                    -1.12299000          -1.34164000          -1.04953000         
H                     2.49366000           1.17652000           0.62887000         
H                     0.88337000           1.91464000           0.79770000         
H                     1.63623000           1.90840000          -0.77035000         
H                     1.93508000          -1.82235000          -0.58354000         
H                     0.80175000          -1.94114000           0.77971000         
H                     2.33520000          -1.08064000           0.95735000         
H                    -0.19120000           0.50923000           3.08090000         
H                    -1.16182000          -1.00255000           2.47097000         
H                    -1.73054000           0.74162000           2.00688000         
H                    -0.48733000           1.93596000          -1.75053000         
H                    -1.44411000           1.80293000          -0.27551000         
H                    -2.01558000           1.02542000          -1.75867000         
H                    -1.75081000          -1.65422000          -0.18692000         
H                    -0.41017000          -2.15435000          -1.24932000         
H                    -1.80464000          -1.26656000          -1.91852000         
22
Image 8 energy:-0.00194 
C                     1.49440000           1.32099000           0.11200000         
C                     0.80519000          -0.00492000          -0.15988000         
C                     1.50914000          -1.27410000           0.28017000         
C                    -0.40614000          -0.03852000          -0.77677000         
C                    -1.06785000           0.08000000           2.55577000         
C                    -1.12997000           1.24320000          -1.14072000         
C                    -1.12257000          -1.33995000          -1.05993000         
H                     2.47103000           1.19039000           0.57106000         
H                     0.89404000           1.96321000           0.78529000         
H                     1.64223000           1.89936000          -0.82137000         
H                     1.94478000          -1.83368000          -0.55895000         
H                     0.81422000          -1.94924000           0.79386000         
H                     2.33828000          -1.05564000           0.97423000         
H                    -0.23374000           0.47860000           3.09803000         
H                    -1.18340000          -0.99068000           2.47671000         
H                    -1.74033000           0.74622000           2.02797000         
H                    -0.49005000           1.93206000          -1.71626000         
H                    -1.44853000           1.80165000          -0.23856000         
H                    -2.02674000           1.04801000          -1.73923000         
H                    -1.76179000          -1.66533000          -0.20672000         
H                    -0.41542000          -2.15671000          -1.26028000         
H                    -1.78339000          -1.24987000          -1.93110000         
22
Image 9 energy:-0.00187 
C                     1.50788000           1.31874000           0.09434000         
C                     0.81196000          -0.00275000          -0.17387000         
C                     1.51453000          -1.27039000           0.28609000         
C                    -0.40571000          -0.03942000          -0.76594000         
C                    -1.08515000           0.07897000           2.54447000         
C                    -1.13474000           1.24032000          -1.12050000         
C                    -1.12370000          -1.33963000          -1.05909000         
H                     2.50095000           1.18683000           0.56225000         
H                     0.91348000           1.95329000           0.77378000         
H                     1.65005000           1.90017000          -0.82844000         
H                     1.95615000          -1.84274000          -0.56044000         
H                     0.83500000          -1.96694000           0.81402000         
H                     2.32501000          -1.02640000           0.98925000         
H                    -0.25785000           0.48703000           3.12745000         
H                    -1.19922000          -1.00642000           2.46924000         
H                    -1.76815000           0.74845000           2.03016000         
H                    -0.49738000           1.93538000          -1.68848000         
H                    -1.45780000           1.79435000          -0.21544000         
H                    -2.03947000           1.04547000          -1.72649000         
H                    -1.76881000          -1.64231000          -0.23667000         
H                    -0.43773000          -2.16508000          -1.25616000         
H                    -1.76718000          -1.23228000          -1.93801000         
22
Image 10 energy:-0.00052 
C                     1.51110000           1.31355000           0.08761000         
C                     0.81428000          -0.00584000          -0.16738000         
C                     1.52735000          -1.26711000           0.28432000         
C                    -0.40500000          -0.04063000          -0.75966000         
C                    -1.09542000           0.08559000           2.54199000         
C                    -1.13962000           1.23854000          -1.11353000         
C                    -1.12920000          -1.33602000          -1.06402000         
H                     2.51068000           1.14119000           0.53292000         
H                     0.92658000           1.97158000           0.78595000         
H                     1.63747000           1.90143000          -0.83784000         
H                     1.99147000          -1.80375000          -0.56405000         
H                     0.84911000          -1.97288000           0.78211000         
H                     2.31902000          -1.04492000           0.99875000         
H                    -0.24996000           0.47232000           3.12637000         
H                    -1.23072000          -0.99480000           2.44369000         
H                    -1.77249000           0.77444000           2.04192000         
H                    -0.51551000           1.95169000          -1.65834000         
H                    -1.48740000           1.75934000          -0.22836000         
H                    -1.99072000           1.03711000          -1.73865000         
H                    -1.77710000          -1.65610000          -0.19239000         
H                    -0.41991000          -2.17143000          -1.27853000         
H                    -1.78464000          -1.22330000          -1.94331000         
22
Image 11 energy:0.00005 
C                     1.51000000           1.31319000           0.09404000         
C                     0.81300000          -0.00710000          -0.16985000         
C                     1.53082000          -1.26475000           0.28481000         
C                    -0.40456000          -0.04185000          -0.76189000         
C                    -1.09612000           0.08609000           2.54035000         
C                    -1.14078000           1.23821000          -1.11460000         
C                    -1.12536000          -1.33951000          -1.05775000         
H                     2.50572000           1.14474000           0.48211000         
H                     0.97666000           1.91876000           0.79926000         
H                     1.61634000           1.92897000          -0.84271000         
H                     2.01843000          -1.77782000          -0.55735000         
H                     0.82455000          -1.96485000           0.75536000         
H                     2.32802000          -1.05268000           1.01442000         
H                    -0.22854000           0.43384000           3.09804000         
H                    -1.26303000          -0.97307000           2.42209000         
H                    -1.77992000           0.80805000           2.07123000         
H                    -0.48956000           1.95625000          -1.67277000         
H                    -1.48948000           1.77302000          -0.18215000         
H                    -2.03555000           1.02779000          -1.74583000         
H                    -1.79589000          -1.62075000          -0.24384000         
H                    -0.44426000          -2.17437000          -1.22872000         
H                    -1.77926000          -1.24074000          -1.96751000         
22
Image 12 energy:0.00037 
C                     1.52354000           1.31132000           0.08076000         
C                     0.81484000          -0.00908000          -0.17342000         
C                     1.53358000          -1.26273000           0.28672000         
C                    -0.40518000          -0.04191000          -0.76270000         
C                    -1.10302000           0.08895000           2.53591000         
C                    -1.14361000           1.23617000          -1.10378000         
C                    -1.13178000          -1.33723000          -1.05879000         
H                     2.54545000           1.16124000           0.48127000         
H                     0.93727000           1.93494000           0.83837000         
H                     1.59002000           1.91667000          -0.80427000         
H                     2.04432000          -1.77486000          -0.54849000         
H                     0.81795000          -1.96661000           0.73704000         
H                     2.32579000          -1.03767000           1.03926000         
H                    -0.21719000           0.40848000           3.07681000         
H                    -1.28781000          -0.97734000           2.40164000         
H                    -1.76731000           0.81973000           2.11319000         
H                    -0.48514000           1.96991000          -1.63505000         
H                    -1.52114000           1.73757000          -0.20038000         
H                    -2.04197000           1.03526000          -1.76488000         
H                    -1.82707000          -1.61854000          -0.24205000         
H                    -0.44291000          -2.17402000          -1.20495000         
H                    -1.72262000          -1.26198000          -1.96206000         
22
Image 13 energy:-0.00102 
C                     1.52514000           1.31096000           0.08815000         
C                     0.81838000          -0.00744000          -0.17844000         
C                     1.53596000          -1.26094000           0.28886000         
C                    -0.40535000          -0.04441000          -0.76361000         
C                    -1.10137000           0.09032000           2.53654000         
C                    -1.15124000           1.22968000          -1.10698000         
C                    -1.13751000          -1.33559000          -1.05963000         
H                     2.55807000           1.16917000           0.45092000         
H                     0.99904000           1.89659000           0.84704000         
H                     1.59103000           1.95141000          -0.84983000         
H                     2.07902000          -1.78384000          -0.53390000         
H                     0.83704000          -1.99260000           0.72364000         
H                     2.27242000          -1.00491000           1.06676000         
H                    -0.19528000           0.39261000           3.08090000         
H                    -1.30722000          -0.97549000           2.38972000         
H                    -1.78437000           0.84960000           2.13631000         
H                    -0.50169000           1.96634000          -1.57721000         
H                    -1.56061000           1.72497000          -0.20371000         
H                    -1.97561000           1.05153000          -1.77944000         
H                    -1.84252000          -1.60985000          -0.25391000         
H                    -0.44434000          -2.18148000          -1.20197000         
H                    -1.72517000          -1.24650000          -1.97237000         
22
Image 14 energy:-0.00045 
C                     1.52949000           1.30810000           0.08051000         
C                     0.82082000          -0.00783000          -0.18180000         
C                     1.53602000          -1.26217000           0.28929000         
C                    -0.40402000          -0.04396000          -0.76248000         
C                    -1.10496000           0.09421000           2.53637000         
C                    -1.15419000           1.23066000          -1.10299000         
C                    -1.13007000          -1.33882000          -1.05677000         
H                     2.57140000           1.17629000           0.40598000         
H                     1.01787000           1.89440000           0.87806000         
H                     1.54202000           1.94914000          -0.79246000         
H                     2.10346000          -1.75359000          -0.50430000         
H                     0.86160000          -2.02227000           0.70878000         
H                     2.23567000          -0.99602000           1.08867000         
H                    -0.19824000           0.34219000           3.06416000         
H                    -1.34868000          -0.94691000           2.36628000         
H                    -1.77162000           0.87751000           2.17988000         
H                    -0.49984000           1.97937000          -1.58243000         
H                    -1.57310000           1.70889000          -0.20624000         
H                    -1.98963000           1.03428000          -1.78622000         
H                    -1.83984000          -1.60741000          -0.25633000         
H                    -0.44967000          -2.19009000          -1.19790000         
H                    -1.76985000          -1.21005000          -2.01014000         
22
Image 15 energy:-0.00206 
C                     1.53045000           1.30599000           0.08132000         
C                     0.82176000          -0.00824000          -0.18281000         
C                     1.54529000          -1.25692000           0.29255000         
C                    -0.40375000          -0.04550000          -0.75873000         
C                    -1.11082000           0.09883000           2.53158000         
C                    -1.15594000           1.22721000          -1.09724000         
C                    -1.13849000          -1.33421000          -1.06320000         
H                     2.57011000           1.13170000           0.36475000         
H                     1.05495000           1.87333000           0.88845000         
H                     1.52840000           1.96741000          -0.80479000         
H                     2.14107000          -1.72652000          -0.52573000         
H                     0.86370000          -2.02486000           0.68309000         
H                     2.24728000          -1.01986000           1.09862000         
H                    -0.17880000           0.32472000           3.05910000         
H                    -1.38218000          -0.94222000           2.34050000         
H                    -1.76745000           0.90004000           2.21633000         
H                    -0.50704000           1.99314000          -1.56554000         
H                    -1.59348000           1.68885000          -0.19585000         
H                    -1.99625000           1.02276000          -1.80180000         
H                    -1.87923000          -1.58461000          -0.25879000         
H                    -0.47030000          -2.19240000          -1.16333000         
H                    -1.68440000          -1.25868000          -1.99490000         
22
Image 16 energy:-0.00036 
C                     1.53582000           1.30450000           0.07886000         
C                     0.82308000          -0.01053000          -0.17871000         
C                     1.55709000          -1.25374000           0.27970000         
C                    -0.40324000          -0.04606000          -0.75588000         
C                    -1.11876000           0.09943000           2.52890000         
C                    -1.16007000           1.22218000          -1.10192000         
C                    -1.14412000          -1.33214000          -1.04861000         
H                     2.59481000           1.11036000           0.35337000         
H                     1.05217000           1.86193000           0.91524000         
H                     1.51385000           1.97291000          -0.78764000         
H                     2.16219000          -1.68771000          -0.50405000         
H                     0.83983000          -2.03602000           0.66004000         
H                     2.27444000          -1.02606000           1.11113000         
H                    -0.16678000           0.29425000           3.03432000         
H                    -1.41605000          -0.91679000           2.32254000         
H                    -1.78787000           0.93079000           2.23819000         
H                    -0.51987000           1.99791000          -1.53391000         
H                    -1.62079000           1.66737000          -0.19245000         
H                    -1.95499000           1.03064000          -1.81825000         
H                    -1.89169000          -1.54540000          -0.30045000         
H                    -0.46344000          -2.20901000          -1.14732000         