22
Image 1 energy:-0.03738 
C                     2.55113000          -0.72247000          -0.27485000         
C                     1.21241000          -0.21482000           0.28149000         
C                     1.28207000           1.28248000           0.61309000         
C                     0.05258000          -0.52461000          -0.71425000         
C                    -1.31189000          -0.14445000          -0.22667000         
C                    -1.90404000          -0.89149000           0.93042000         
C                    -1.98508000           1.11577000          -0.67820000         
H                     3.36933000          -0.55653000           0.44249000         
H                     2.50900000          -1.79903000          -0.50139000         
H                     0.99857000          -0.76312000           1.21543000         
H                     0.34712000           1.63558000           1.06947000         
H                     1.45570000           1.87566000          -0.30071000         
H                     2.10425000           1.49638000           1.31412000         
H                     0.08595000          -1.61281000          -0.91953000         
H                     0.27437000          -0.01600000          -1.66815000         
H                    -3.00435000          -0.93982000           0.86491000         
H                    -1.67595000          -0.40947000           1.90286000         
H                    -1.52000000          -1.92073000           0.99167000         
H                    -3.05171000           0.94466000          -0.91161000         
H                    -1.50620000           1.53879000          -1.57240000         
H                    -1.97261000           1.90663000           0.09999000         
H                     2.81068000          -0.19446000          -1.20602000         
22
Image 2 energy:-0.03707 
C                     2.54868000          -0.72225000          -0.27386000         
C                     1.21529000          -0.21126000           0.28460000         
C                     1.28993000           1.28797000           0.61035000         
C                     0.05356000          -0.52455000          -0.70675000         
C                    -1.31505000          -0.14674000          -0.22741000         
C                    -1.90896000          -0.89695000           0.92547000         
C                    -1.98673000           1.11453000          -0.68011000         
H                     3.36326000          -0.58751000           0.45917000         
H                     2.48861000          -1.79139000          -0.53042000         
H                     1.00204000          -0.75535000           1.22144000         
H                     0.36042000           1.65213000           1.06676000         
H                     1.46353000           1.87207000          -0.30508000         
H                     2.11329000           1.50371000           1.30523000         
H                     0.08903000          -1.61188000          -0.90948000         
H                     0.27588000          -0.01801000          -1.66327000         
H                    -3.01731000          -0.88267000           0.89372000         
H                    -1.61911000          -0.45921000           1.91323000         
H                    -1.57260000          -1.95329000           0.93473000         
H                    -3.07053000           0.94221000          -0.87544000         
H                    -1.53296000           1.52426000          -1.60762000         
H                    -1.93755000           1.91668000           0.09164000         
H                     2.82387000          -0.17013000          -1.18851000         
22
Image 3 energy:-0.03737 
C                     2.55105000          -0.72509000          -0.27373000         
C                     1.21413000          -0.21192000           0.28325000         
C                     1.28397000           1.28778000           0.60497000         
C                     0.05342000          -0.52587000          -0.71080000         
C                    -1.31214000          -0.14516000          -0.22510000         
C                    -1.91235000          -0.89905000           0.92392000         
C                    -1.98026000           1.11998000          -0.67023000         
H                     3.37507000          -0.54178000           0.43138000         
H                     2.51216000          -1.80553000          -0.47689000         
H                     1.00023000          -0.75468000           1.22076000         
H                     0.35138000           1.64200000           1.06622000         
H                     1.44885000           1.87600000          -0.31320000         
H                     2.11133000           1.50766000           1.29767000         
H                     0.08710000          -1.61471000          -0.91384000         
H                     0.27548000          -0.01892000          -1.66610000         
H                    -3.01040000          -0.95579000           0.84462000         
H                    -1.70129000          -0.41769000           1.89962000         
H                    -1.52189000          -1.92471000           0.98851000         
H                    -3.04504000           0.95350000          -0.91209000         
H                    -1.49443000           1.54929000          -1.55637000         
H                    -1.97224000           1.90404000           0.11409000         
H                     2.80024000          -0.21597000          -1.21803000         
22
Image 4 energy:-0.03728 
C                     2.55712000          -0.72541000          -0.28003000         
C                     1.21963000          -0.21558000           0.28194000         
C                     1.28211000           1.28155000           0.60732000         
C                     0.05184000          -0.52508000          -0.70581000         
C                    -1.31114000          -0.14036000          -0.21983000         
C                    -1.92183000          -0.89674000           0.91986000         
C                    -1.97711000           1.12360000          -0.66926000         
H                     3.38547000          -0.52018000           0.41666000         
H                     2.52435000          -1.80887000          -0.46185000         
H                     1.01281000          -0.75943000           1.22134000         
H                     0.36183000           1.61912000           1.10441000         
H                     1.40618000           1.87449000          -0.31284000         
H                     2.12570000           1.51092000           1.27115000         
H                     0.08332000          -1.61763000          -0.90717000         
H                     0.27453000          -0.02303000          -1.66342000         
H                    -3.01514000          -1.00057000           0.79741000         
H                    -1.76792000          -0.38277000           1.89048000         
H                    -1.49267000          -1.90476000           1.02141000         
H                    -3.05108000           0.95806000          -0.88910000         
H                    -1.50511000           1.53989000          -1.57482000         
H                    -1.94823000           1.91662000           0.10650000         
H                     2.78928000          -0.23480000          -1.23663000         
22
Image 5 energy:-0.03728 
C                     2.54169000          -0.72123000          -0.28022000         
C                     1.21041000          -0.20830000           0.28464000         
C                     1.29210000           1.29246000           0.60688000         
C                     0.05256000          -0.53696000          -0.70597000         
C                    -1.31153000          -0.14728000          -0.22310000         
C                    -1.91912000          -0.90126000           0.92135000         
C                    -1.97050000           1.12313000          -0.67048000         
H                     3.36107000          -0.57909000           0.43880000         
H                     2.49114000          -1.79241000          -0.52977000         
H                     1.00187000          -0.75188000           1.22243000         
H                     0.36911000           1.65431000           1.08193000         
H                     1.45085000           1.88096000          -0.31323000         
H                     2.13406000           1.50330000           1.28860000         
H                     0.08360000          -1.62510000          -0.88992000         
H                     0.27346000          -0.04049000          -1.66682000         
H                    -3.01796000          -0.96875000           0.83453000         
H                    -1.72000000          -0.41797000           1.89944000         
H                    -1.51811000          -1.92570000           0.98800000         
H                    -3.03993000           0.96625000          -0.90440000         
H                    -1.48657000           1.54304000          -1.56457000         
H                    -1.94819000           1.91152000           0.10983000         
H                     2.80849000          -0.17412000          -1.19850000         
22
Image 6 energy:-0.03723 
C                     2.55953000          -0.72110000          -0.27156000         
C                     1.21799000          -0.21362000           0.28336000         
C                     1.27891000           1.28911000           0.59010000         
C                     0.05113000          -0.53087000          -0.70444000         
C                    -1.31749000          -0.14891000          -0.22518000         
C                    -1.92576000          -0.90347000           0.92063000         
C                    -1.96800000           1.12716000          -0.66020000         
H                     3.37804000          -0.57687000           0.45630000         
H                     2.50437000          -1.79262000          -0.51685000         
H                     1.00316000          -0.74888000           1.22497000         
H                     0.34310000           1.65449000           1.03165000         
H                     1.46127000           1.86495000          -0.32925000         
H                     2.09286000           1.51674000           1.29308000         
H                     0.08663000          -1.62248000          -0.90688000         
H                     0.27165000          -0.03133000          -1.66554000         
H                    -3.02601000          -0.90536000           0.86605000         
H                    -1.66757000          -0.45894000           1.90534000         
H                    -1.58225000          -1.94764000           0.95173000         
H                    -3.03792000           0.97529000          -0.89444000         
H                    -1.48171000           1.55409000          -1.54973000         
H                    -1.94052000           1.90742000           0.13044000         
H                     2.82945000          -0.17790000          -1.19568000         
22
Image 7 energy:-0.03713 
C                     2.54504000          -0.72116000          -0.28386000         
C                     1.21286000          -0.20749000           0.28714000         
C                     1.28474000           1.29683000           0.60138000         
C                     0.05684000          -0.54192000          -0.70222000         
C                    -1.30627000          -0.14967000          -0.22050000         
C                    -1.92961000          -0.90372000           0.91384000         
C                    -1.96291000           1.12518000          -0.66017000         
H                     3.38358000          -0.50556000           0.40360000         
H                     2.51465000          -1.80650000          -0.45421000         
H                     1.00916000          -0.74642000           1.22981000         
H                     0.33435000           1.65066000           1.03237000         
H                     1.46894000           1.87569000          -0.32372000         
H                     2.09579000           1.52709000           1.31409000         
H                     0.08936000          -1.62709000          -0.89574000         
H                     0.28125000          -0.03922000          -1.66018000         
H                    -3.03477000          -0.88199000           0.85120000         
H                    -1.66589000          -0.46408000           1.90168000         
H                    -1.60622000          -1.95951000           0.93549000         
H                    -3.03094000           0.96709000          -0.90518000         
H                    -1.47213000           1.56193000          -1.54366000         
H                    -1.95173000           1.90085000           0.13246000         
H                     2.76707000          -0.23909000          -1.25144000         
22
Image 8 energy:-0.03711 
C                     2.55530000          -0.72193000          -0.28510000         
C                     1.22887000          -0.21422000           0.28985000         
C                     1.28135000           1.28709000           0.59656000         
C                     0.05446000          -0.52906000          -0.69167000         
C                    -1.31423000          -0.14208000          -0.21660000         
C                    -1.93728000          -0.90797000           0.91206000         
C                    -1.96776000           1.12985000          -0.66619000         
H                     3.40017000          -0.47887000           0.36582000         
H                     2.53310000          -1.81374000          -0.42510000         
H                     1.03080000          -0.75143000           1.23522000         
H                     0.35347000           1.62963000           1.07875000         
H                     1.41552000           1.87163000          -0.32858000         
H                     2.12092000           1.52321000           1.26858000         
H                     0.08182000          -1.62200000          -0.88750000         
H                     0.28143000          -0.02987000          -1.65012000         
H                    -3.04054000          -0.94200000           0.82263000         
H                    -1.72167000          -0.45252000           1.90668000         
H                    -1.55971000          -1.94462000           0.95236000         
H                    -3.03112000           0.97040000          -0.92358000         
H                    -1.46663000           1.55694000          -1.54574000         
H                    -1.96528000           1.91341000           0.11867000         
H                     2.75008000          -0.25949000          -1.26065000         
22
Image 9 energy:-0.03706 
C                     2.55889000          -0.71594000          -0.28596000         
C                     1.21654000          -0.20859000           0.27688000         
C                     1.29484000           1.29312000           0.60462000         
C                     0.04536000          -0.54418000          -0.69793000         
C                    -1.31247000          -0.14430000          -0.21161000         
C                    -1.94601000          -0.90747000           0.91273000         
C                    -1.96044000           1.12936000          -0.66310000         
H                     3.38944000          -0.47837000           0.40907000         
H                     2.54455000          -1.80822000          -0.43690000         
H                     1.02261000          -0.74898000           1.22131000         
H                     0.38137000           1.63652000           1.10933000         
H                     1.41128000           1.88503000          -0.31651000         
H                     2.14914000           1.51702000           1.25785000         
H                     0.08131000          -1.63333000          -0.87921000         
H                     0.26182000          -0.05306000          -1.66237000         
H                    -3.03912000          -0.99129000           0.78640000         
H                    -1.78758000          -0.42544000           1.90055000         
H                    -1.53351000          -1.92608000           0.98900000         
H                    -3.02495000           0.96979000          -0.91642000         
H                    -1.46353000           1.55020000          -1.54869000         
H                    -1.95297000           1.91716000           0.11859000         
H                     2.79005000          -0.24425000          -1.26569000         
22
Image 10 energy:-0.03718 
C                     2.55228000          -0.71073000          -0.29451000         
C                     1.22435000          -0.21116000           0.29125000         
C                     1.28676000           1.29446000           0.59390000         
C                     0.05478000          -0.54764000          -0.68604000         
C                    -1.31158000          -0.14833000          -0.21297000         
C                    -1.95320000          -0.90891000           0.90890000         
C                    -1.95280000           1.13164000          -0.66016000         
H                     3.38536000          -0.55372000           0.40176000         
H                     2.50789000          -1.78341000          -0.53302000         
H                     1.02926000          -0.74681000           1.23564000         
H                     0.36637000           1.65076000           1.07586000         
H                     1.42510000           1.87213000          -0.33336000         
H                     2.13180000           1.52642000           1.26270000         
H                     0.08346000          -1.64399000          -0.85503000         
H                     0.27465000          -0.07118000          -1.65727000         
H                    -3.04159000          -0.99413000           0.77697000         
H                    -1.80738000          -0.41688000           1.88409000         
H                    -1.54424000          -1.92123000           1.00360000         
H                    -3.02128000           0.98208000          -0.90999000         
H                    -1.45361000           1.55587000          -1.54527000         
H                    -1.93545000           1.91391000           0.12649000         
H                     2.78316000          -0.17104000          -1.22323000         
22
Image 11 energy:-0.03701 
C                     2.56100000          -0.69924000          -0.29474000         
C                     1.22281000          -0.20939000           0.28532000         
C                     1.27960000           1.29764000           0.58625000         
C                     0.04872000          -0.56548000          -0.68326000         
C                    -1.31104000          -0.15308000          -0.20909000         
C                    -1.96726000          -0.91045000           0.90629000         
C                    -1.93491000           1.13667000          -0.65111000         
H                     3.39010000          -0.57106000           0.41782000         
H                     2.50397000          -1.76934000          -0.56525000         
H                     1.04962000          -0.74221000           1.23931000         
H                     0.34764000           1.65004000           1.04739000         
H                     1.42586000           1.85965000          -0.34433000         
H                     2.10618000           1.54350000           1.26250000         
H                     0.07573000          -1.65743000          -0.83690000         
H                     0.27500000          -0.09771000          -1.65261000         
H                    -3.06665000          -0.95393000           0.78237000         
H                    -1.79037000          -0.43714000           1.89668000         
H                    -1.58773000          -1.94241000           0.97815000         
H                    -3.00236000           1.00551000          -0.90802000         
H                    -1.42425000           1.55959000          -1.52768000         
H                    -1.91441000           1.91229000           0.14008000         
H                     2.81527000          -0.12898000          -1.21091000         
22
Image 12 energy:-0.03688 
C                     2.55779000          -0.69951000          -0.30238000         
C                     1.23072000          -0.21071000           0.28804000         
C                     1.27060000           1.29417000           0.58247000         
C                     0.05599000          -0.55967000          -0.67061000         
C                    -1.31398000          -0.15294000          -0.20686000         
C                    -1.97288000          -0.91364000           0.90254000         
C                    -1.92763000           1.13913000          -0.65024000         
H                     3.39146000          -0.48562000           0.39250000         
H                     2.54355000          -1.78459000          -0.48614000         
H                     1.03342000          -0.74769000           1.22593000         
H                     0.33708000           1.64324000           1.05092000         
H                     1.42202000           1.87546000          -0.34683000         
H                     2.10478000           1.53075000           1.26430000         
H                     0.08364000          -1.65348000          -0.83820000         
H                     0.25688000          -0.09046000          -1.66341000         
H                    -3.06903000          -0.93843000           0.78301000         
H                    -1.78200000          -0.46049000           1.89626000         
H                    -1.61028000          -1.95189000           0.95556000         
H                    -2.99523000           1.01153000          -0.90805000         
H                    -1.41193000           1.55644000          -1.52749000         
H                    -1.90170000           1.91694000           0.14064000         
H                     2.78086000          -0.19341000          -1.25978000         
22
Image 13 energy:-0.03695 
C                     2.55992000          -0.69743000          -0.30545000         
C                     1.22786000          -0.20704000           0.28915000         
C                     1.27265000           1.30106000           0.59189000         
C                     0.04871000          -0.57375000          -0.67675000         
C                    -1.30948000          -0.15386000          -0.20718000         
C                    -1.98011000          -0.91449000           0.89797000         
C                    -1.91978000           1.14118000          -0.64983000         
H                     3.41092000          -0.42893000           0.33511000         
H                     2.55783000          -1.78875000          -0.42940000         
H                     1.06669000          -0.73506000           1.25189000         
H                     0.35883000           1.62644000           1.10825000         
H                     1.35549000           1.88762000          -0.33932000         
H                     2.13419000           1.55891000           1.22886000         
H                     0.07116000          -1.66739000          -0.83153000         
H                     0.28041000          -0.10653000          -1.64476000         
H                    -3.07940000          -0.91565000           0.79020000         
H                    -1.77045000          -0.47607000           1.89756000         
H                    -1.63672000          -1.95939000           0.93610000         
H                    -2.98572000           1.01504000          -0.92032000         
H                    -1.39717000           1.56812000          -1.51957000         
H                    -1.90295000           1.91252000           0.14866000         
H                     2.73039000          -0.24866000          -1.29504000         
22
Image 14 energy:-0.03665 
C                     2.56638000          -0.69050000          -0.31755000         
C                     1.23863000          -0.20660000           0.28676000         
C                     1.27903000           1.29725000           0.59456000         
C                     0.05915000          -0.57163000          -0.65225000         
C                    -1.31373000          -0.15654000          -0.20313000         
C                    -2.00377000          -0.91291000           0.89150000         
C                    -1.92052000           1.13787000          -0.65398000         
H                     3.42159000          -0.40327000           0.30295000         
H                     2.57648000          -1.78757000          -0.42202000         
H                     1.06071000          -0.75073000           1.22508000         
H                     0.38439000           1.61161000           1.14726000         
H                     1.31912000           1.88290000          -0.33858000         
H                     2.15912000           1.56287000           1.19483000         
H                     0.08862000          -1.66841000          -0.80188000         
H                     0.26224000          -0.11808000          -1.64634000         
H                    -3.10332000          -0.90217000           0.77018000         
H                    -1.80331000          -0.47396000           1.89639000         
H                    -1.66972000          -1.96238000           0.93451000         
H                    -2.98253000           1.01826000          -0.93625000         
H                    -1.38657000           1.56970000          -1.51173000         
H                    -1.91400000           1.90256000           0.14925000         
H                     2.71632000          -0.25428000          -1.31954000         
22
Image 15 energy:-0.03618 
C                     2.56393000          -0.68182000          -0.32633000         
C                     1.25051000          -0.21021000           0.30216000         
C                     1.27949000           1.29287000           0.58958000         
C                     0.04787000          -0.57638000          -0.66219000         
C                    -1.30868000          -0.15367000          -0.19295000         
C                    -2.01545000          -0.91238000           0.89040000         
C                    -1.91652000           1.13601000          -0.65443000         
H                     3.41195000          -0.41052000           0.32647000         
H                     2.58628000          -1.77739000          -0.46521000         
H                     1.12650000          -0.73832000           1.27059000         
H                     0.38997000           1.62299000           1.14532000         
H                     1.33294000           1.87595000          -0.34373000         
H                     2.16769000           1.54164000           1.19402000         
H                     0.09435000          -1.66373000          -0.78508000         
H                     0.25425000          -0.12249000          -1.65225000         
H                    -3.11043000          -0.91445000           0.73020000         
H                    -1.85663000          -0.45856000           1.89438000         
H                    -1.67280000          -1.95952000           0.95407000         
H                    -2.97490000           1.00316000          -0.94363000         
H                    -1.37892000           1.55963000          -1.51381000         
H                    -1.92191000           1.90878000           0.14014000         
H                     2.72856000          -0.21018000          -1.31135000         
22
Image 16 energy:-0.03641 
C                     2.56815000          -0.67675000          -0.33304000         
C                     1.23955000          -0.20778000           0.28407000         
C                     1.28345000           1.29586000           0.59091000         
C                     0.05397000          -0.58296000          -0.64064000         
C                    -1.30713000          -0.15194000          -0.18280000         
C                    -2.02509000          -0.91468000           0.88789000         
C                    -1.90798000           1.13582000          -0.65533000         
H                     3.41523000          -0.44313000           0.33544000         
H                     2.57494000          -1.76321000          -0.51446000         
H                     1.08301000          -0.74718000           1.23545000         
H                     0.38454000           1.62956000           1.12619000         
H                     1.35755000           1.87709000          -0.34043000         
H                     2.15749000           1.54434000           1.21107000         
H                     0.05930000          -1.69638000          -0.79066000         
H                     0.28204000          -0.13448000          -1.61088000         
H                    -3.11585000          -0.94142000           0.70252000         
H                    -1.89581000          -0.44679000           1.89084000         
H                    -1.65834000          -1.95282000           0.97127000         
H                    -2.96446000           0.99214000          -0.95143000         
H                    -1.36843000           1.55295000          -1.51814000         
H                    -1.92376000           1.91803000           0.13044000         