18
Image 1 energy:-0.02345 
C                     2.04924000           0.01856000           0.84254000         
C                     2.26219000          -0.01219000          -0.67483000         
C                    -1.50215000           1.29946000          -0.27917000         
C                    -1.50405000          -0.00068000           0.45694000         
C                    -1.48555000          -1.30499000          -0.27061000         
H                     0.97525000           0.01733000           1.08587000         
H                     2.49659000           0.91876000           1.29051000         
H                     2.50563000          -0.85769000           1.32783000         
H                     1.80273000           0.86258000          -1.15884000         
H                     1.81217000          -0.91175000          -1.12100000         
H                    -2.50051000           1.54591000          -0.69870000         
H                    -0.80617000           1.27513000          -1.13430000         
H                    -1.21568000           2.13958000           0.37133000         
H                    -1.79718000           0.00116000           1.50918000         
H                    -2.47894000          -1.56467000          -0.69329000         
H                    -1.19347000          -2.13758000           0.38703000         
H                     3.33192000          -0.01198000          -0.93500000         
H                    -0.78528000          -1.27879000          -1.12211000         
18
Image 2 energy:-0.02344 
C                     2.04473000           0.01945000           0.84294000         
C                     2.26448000          -0.01271000          -0.67437000         
C                    -1.50134000           1.30022000          -0.27932000         
C                    -1.50399000          -0.00131000           0.45612000         
C                    -1.48441000          -1.30532000          -0.27068000         
H                     0.96901000           0.01869000           1.07865000         
H                     2.49170000           0.91885000           1.29332000         
H                     2.49660000          -0.85828000           1.33155000         
H                     1.81417000           0.86594000          -1.15838000         
H                     1.80877000          -0.90847000          -1.12519000         
H                    -2.50567000           1.55936000          -0.67844000         
H                    -0.82154000           1.26858000          -1.14804000         
H                    -1.19277000           2.13660000           0.36707000         
H                    -1.79542000           0.00090000           1.50888000         
H                    -2.48443000          -1.58176000          -0.66960000         
H                    -1.16407000          -2.13360000           0.38051000         
H                     3.33637000          -0.02269000          -0.93097000         
H                    -0.80328000          -1.26815000          -1.13854000         
18
Image 3 energy:-0.02344 
C                     2.04860000           0.01611000           0.84223000         
C                     2.26079000          -0.01115000          -0.67457000         
C                    -1.50137000           1.29950000          -0.27999000         
C                    -1.50547000           0.00106000           0.45656000         
C                    -1.48298000          -1.30531000          -0.26990000         
H                     0.97452000           0.01958000           1.08908000         
H                     2.49816000           0.91374000           1.29320000         
H                     2.50261000          -0.86215000           1.32433000         
H                     1.79689000           0.86147000          -1.16085000         
H                     1.81575000          -0.91293000          -1.11752000         
H                    -2.50011000           1.54945000          -0.69860000         
H                    -0.80787000           1.27270000          -1.13676000         
H                    -1.21096000           2.13916000           0.36977000         
H                    -1.80125000           0.00302000           1.50803000         
H                    -2.47609000          -1.56838000          -0.69142000         
H                    -1.18803000          -2.13637000           0.38965000         
H                     3.32913000          -0.00291000          -0.93225000         
H                    -0.78432000          -1.27891000          -1.12175000         
18
Image 4 energy:-0.02344 
C                     2.05471000           0.01781000           0.84522000         
C                     2.25396000          -0.00958000          -0.67486000         
C                    -1.49820000           1.29799000          -0.28212000         
C                    -1.50551000          -0.00122000           0.45709000         
C                    -1.48612000          -1.30506000          -0.26998000         
H                     0.98268000           0.01480000           1.09514000         
H                     2.50478000           0.91803000           1.29024000         
H                     2.51611000          -0.85856000           1.32500000         
H                     1.79655000           0.87053000          -1.15284000         
H                     1.79451000          -0.90441000          -1.12021000         
H                    -2.49089000           1.54159000          -0.71166000         
H                    -0.79142000           1.27251000          -1.12784000         
H                    -1.21953000           2.13966000           0.37327000         
H                    -1.80336000           0.00264000           1.50794000         
H                    -2.47425000          -1.55669000          -0.71383000         
H                    -1.21176000          -2.14105000           0.39032000         
H                     3.32229000          -0.01558000          -0.94401000         
H                    -0.76866000          -1.28276000          -1.10867000         
18
Image 5 energy:-0.02344 
C                     2.05855000           0.01813000           0.84416000         
C                     2.25198000          -0.01027000          -0.67476000         
C                    -1.49891000           1.29703000          -0.28092000         
C                    -1.50466000          -0.00040000           0.45866000         
C                    -1.48700000          -1.30435000          -0.27115000         
H                     0.98852000           0.01327000           1.10560000         
H                     2.50902000           0.91948000           1.28587000         
H                     2.52625000          -0.85596000           1.32148000         
H                     1.78726000           0.86515000          -1.14976000         
H                     1.79765000          -0.90944000          -1.11795000         
H                    -2.48547000           1.52333000          -0.73896000         
H                    -0.77324000           1.28146000          -1.11033000         
H                    -1.25144000           2.14517000           0.37286000         
H                    -1.80713000           0.00205000           1.50838000         
H                    -2.46828000          -1.53805000          -0.73422000         
H                    -1.24183000          -2.14564000           0.39257000         
H                     3.31722000          -0.00960000          -0.94615000         
H                    -0.75488000          -1.29287000          -1.09415000         
18
Image 6 energy:-0.02342 
C                     2.05193000           0.01704000           0.84493000         
C                     2.24212000          -0.00801000          -0.67593000         
C                    -1.48996000           1.29669000          -0.28235000         
C                    -1.49901000          -0.00048000           0.45872000         
C                    -1.48380000          -1.30500000          -0.26934000         
H                     0.98218000           0.00984000           1.10502000         
H                     2.50252000           0.91789000           1.28772000         
H                     2.52044000          -0.85794000           1.32076000         
H                     1.76772000           0.86334000          -1.15206000         
H                     1.79467000          -0.91108000          -1.11733000         
H                    -2.47441000           1.51260000          -0.74568000         
H                    -0.75748000           1.28824000          -1.10681000         
H                    -1.25414000           2.14423000           0.38170000         
H                    -1.80657000           0.00527000           1.50669000         
H                    -2.46497000          -1.53463000          -0.74273000         
H                    -1.24657000          -2.14769000           0.39623000         
H                     3.30783000           0.00428000          -0.95049000         
H                    -0.74310000          -1.29716000          -1.08831000         
18
Image 7 energy:-0.02342 
C                     2.04322000           0.01586000           0.84387000         
C                     2.23912000          -0.00647000          -0.67604000         
C                    -1.48625000           1.29680000          -0.28239000         
C                    -1.49772000          -0.00132000           0.45910000         
C                    -1.47735000          -1.30526000          -0.26852000         
H                     0.97239000           0.01260000           1.10246000         
H                     2.49646000           0.91424000           1.29035000         
H                     2.50863000          -0.86154000           1.31910000         
H                     1.77029000           0.86882000          -1.15144000         
H                     1.78947000          -0.90593000          -1.12100000         
H                    -2.47530000           1.53455000          -0.73725000         
H                    -0.76117000           1.27357000          -1.11639000         
H                    -1.22570000           2.14245000           0.37221000         
H                    -1.80861000           0.00244000           1.50629000         
H                    -2.46082000          -1.53879000          -0.72335000         
H                    -1.22890000          -2.14499000           0.39769000         
H                     3.30595000           0.00065000          -0.94739000         
H                    -0.75165000          -1.29343000          -1.09638000         
18
Image 8 energy:-0.02340 
C                     2.03369000           0.01550000           0.84263000         
C                     2.23641000          -0.00808000          -0.67621000         
C                    -1.48328000           1.29817000          -0.28088000         
C                    -1.49461000           0.00042000           0.45817000         
C                    -1.47065000          -1.30570000          -0.26812000         
H                     0.96164000           0.01400000           1.09512000         
H                     2.48471000           0.91376000           1.29165000         
H                     2.49513000          -0.86225000           1.32018000         
H                     1.77388000           0.86936000          -1.15236000         
H                     1.78350000          -0.90529000          -1.12413000         
H                    -2.47438000           1.53947000          -0.71260000         
H                    -0.77961000           1.27162000          -1.12431000         
H                    -1.21038000           2.14266000           0.36703000         
H                    -1.80670000           0.00488000           1.50504000         
H                    -2.45849000          -1.55601000          -0.72025000         
H                    -1.20417000          -2.13973000           0.40071000         
H                     3.30412000          -0.00690000          -0.94292000         
H                    -0.74458000          -1.28920000          -1.10314000         
18
Image 9 energy:-0.02343 
C                     2.02326000           0.01612000           0.84193000         
C                     2.23179000          -0.00735000          -0.67693000         
C                    -1.47560000           1.29843000          -0.28044000         
C                    -1.49021000          -0.00027000           0.45748000         
C                    -1.46696000          -1.30672000          -0.26688000         
H                     0.94992000           0.01370000           1.08681000         
H                     2.47040000           0.91425000           1.29332000         
H                     2.48120000          -0.86195000           1.32140000         
H                     1.77182000           0.86965000          -1.15554000         
H                     1.78137000          -0.90490000          -1.12736000         
H                    -2.46747000           1.54282000          -0.71676000         
H                    -0.76490000           1.27433000          -1.12409000         
H                    -1.20076000           2.13883000           0.37612000         
H                    -1.80430000           0.00384000           1.50377000         
H                    -2.45790000          -1.56587000          -0.69216000         
H                    -1.17966000          -2.13901000           0.39260000         
H                     3.30122000          -0.00571000          -0.93888000         
H                    -0.76486000          -1.28259000          -1.11421000         
18
Image 10 energy:-0.02338 
C                     2.00947000           0.01565000           0.83780000         
C                     2.23054000          -0.00693000          -0.67770000         
C                    -1.46936000           1.29860000          -0.27938000         
C                    -1.48863000          -0.00054000           0.46048000         
C                    -1.46073000          -1.30684000          -0.26565000         
H                     0.93578000           0.01311000           1.08245000         
H                     2.45841000           0.91390000           1.29146000         
H                     2.46786000          -0.86191000           1.32096000         
H                     1.77194000           0.86980000          -1.15853000         
H                     1.78554000          -0.90499000          -1.12992000         
H                    -2.46442000           1.55506000          -0.71070000         
H                    -0.76398000           1.26629000          -1.12952000         
H                    -1.18065000           2.13729000           0.37292000         
H                    -1.80472000           0.00392000           1.50641000         
H                    -2.45381000          -1.57200000          -0.69529000         
H                    -1.16948000          -2.13693000           0.39657000         
H                     3.30004000          -0.00258000          -0.93094000         
H                    -0.75471000          -1.28022000          -1.11531000         
18
Image 11 energy:-0.02338 
C                     2.00264000           0.01551000           0.83965000         
C                     2.22659000          -0.00709000          -0.67732000         
C                    -1.46675000           1.29875000          -0.27911000         
C                    -1.48106000          -0.00033000           0.45673000         
C                    -1.45738000          -1.30676000          -0.26531000         
H                     0.92477000           0.01393000           1.07112000         
H                     2.44562000           0.91342000           1.29632000         
H                     2.45444000          -0.86311000           1.32446000         
H                     1.77010000           0.87051000          -1.16077000         
H                     1.77981000          -0.90408000          -1.13254000         
H                    -2.46420000           1.55880000          -0.68415000         
H                    -0.78323000           1.26322000          -1.13977000         
H                    -1.16247000           2.13542000           0.36754000         
H                    -1.79639000           0.00424000           1.50242000         
H                    -2.45319000          -1.57849000          -0.66850000         
H                    -1.14694000          -2.13376000           0.39136000         
H                     3.29948000          -0.00530000          -0.92975000         
H                    -0.77268000          -1.27583000          -1.12646000         
18
Image 12 energy:-0.02337 
C                     1.98729000           0.01558000           0.83543000         
C                     2.22444000          -0.00728000          -0.67855000         
C                    -1.45999000           1.29990000          -0.27730000         
C                    -1.47841000          -0.00003000           0.45893000         
C                    -1.45022000          -1.30794000          -0.26358000         
H                     0.91097000           0.01480000           1.06253000         
H                     2.42725000           0.91263000           1.29533000         
H                     2.43603000          -0.86339000           1.32217000         
H                     1.77474000           0.87057000          -1.16542000         
H                     1.78183000          -0.90408000          -1.13721000         
H                    -2.45891000           1.56823000          -0.68458000         
H                    -0.77338000           1.26236000          -1.13952000         
H                    -1.14906000           2.13373000           0.37090000         
H                    -1.79655000           0.00403000           1.50424000         
H                    -2.44770000          -1.58952000          -0.66505000         
H                    -1.13030000          -2.13229000           0.39210000         
H                     3.29800000          -0.00666000          -0.91968000         
H                    -0.76677000          -1.27326000          -1.12787000         
18
Image 13 energy:-0.02332 
C                     1.97322000           0.01562000           0.83367000         
C                     2.22123000          -0.00730000          -0.67862000         
C                    -1.45448000           1.30019000          -0.27663000         
C                    -1.46965000          -0.00050000           0.45893000         
C                    -1.44544000          -1.30807000          -0.26303000         
H                     0.89294000           0.01357000           1.05555000         
H                     2.41501000           0.91420000           1.29552000         
H                     2.41943000          -0.86233000           1.32529000         
H                     1.77326000           0.87064000          -1.16818000         
H                     1.78207000          -0.90392000          -1.14065000         
H                    -2.45712000           1.57158000          -0.66857000         
H                    -0.78129000           1.26072000          -1.14806000         
H                    -1.13305000           2.13239000           0.36819000         
H                    -1.78666000           0.00415000           1.50459000         
H                    -2.44637000          -1.59186000          -0.65031000         
H                    -1.11609000          -2.13056000           0.39035000         
H                     3.29645000          -0.00554000          -0.91285000         
H                    -0.77353000          -1.27238000          -1.13573000         
18
Image 14 energy:-0.02326 
C                     1.96096000           0.01457000           0.83190000         
C                     2.22033000          -0.00675000          -0.67879000         
C                    -1.45117000           1.30071000          -0.27602000         
C                    -1.46341000           0.00029000           0.45886000         
C                    -1.44091000          -1.30852000          -0.26153000         
H                     0.88138000           0.01611000           1.04144000         
H                     2.38673000           0.91050000           1.29947000         
H                     2.40492000          -0.86503000           1.32522000         
H                     1.77609000           0.87060000          -1.17262000         
H                     1.78418000          -0.90398000          -1.14409000         
H                    -2.45758000           1.58039000          -0.65516000         
H                    -0.78845000           1.25816000          -1.15639000         
H                    -1.11475000           2.12951000           0.36607000         
H                    -1.77424000           0.00454000           1.50654000         
H                    -2.44561000          -1.60072000          -0.63604000         
H                    -1.09650000          -2.12749000           0.38893000         
H                     3.29832000          -0.00590000          -0.90592000         
H                    -0.78025000          -1.27017000          -1.14354000         
18
Image 15 energy:-0.02319 
C                     1.94759000           0.01617000           0.82931000         
C                     2.22032000          -0.00769000          -0.67880000         
C                    -1.44709000           1.30100000          -0.27482000         
C                    -1.45756000          -0.00046000           0.45954000         
C                    -1.43773000          -1.30891000          -0.26146000         
H                     0.86557000           0.01247000           1.03438000         
H                     2.39084000           0.91380000           1.29838000         
H                     2.38055000          -0.86253000           1.32704000         
H                     1.78112000           0.87032000          -1.17534000         
H                     1.78994000          -0.90444000          -1.14852000         
H                    -2.45643000           1.58632000          -0.63913000         
H                    -0.79715000           1.25502000          -1.16365000         
H                    -1.09740000           2.12768000           0.36278000         
H                    -1.76346000           0.00398000           1.50825000         
H                    -2.44525000          -1.60632000          -0.62082000         
H                    -1.08049000          -2.12609000           0.38401000         
H                     3.29899000          -0.00506000          -0.89393000         
H                    -0.78947000          -1.26667000          -1.15177000         
18
Image 16 energy:-0.02314 
C                     1.93513000           0.01410000           0.82715000         
C                     2.21996000          -0.00663000          -0.67850000         
C                    -1.44435000           1.30144000          -0.27476000         
C                    -1.44912000           0.00037000           0.45983000         
C                    -1.43435000          -1.30910000          -0.26009000         
H                     0.85042000           0.01374000           1.02186000         
H                     2.35490000           0.91178000           1.30161000         
H                     2.37545000          -0.86481000           1.32824000         
H                     1.78301000           0.87052000          -1.17920000         
H                     1.79278000          -0.90407000          -1.15114000         
H                    -2.45704000           1.59065000          -0.62657000         
H                    -0.80506000           1.25339000          -1.17118000         
H                    -1.08427000           2.12696000           0.35846000         
H                    -1.74615000           0.00496000           1.51160000         
H                    -2.44515000          -1.61075000          -0.60703000         
H                    -1.06625000          -2.12441000           0.38180000         
H                     3.30105000          -0.00429000          -0.88717000         
H                    -0.79700000          -1.26584000          -1.15800000         
18
Image 17 energy:-0.02305 
C                     1.92135000           0.01534000           0.82488000         
C                     2.21919000          -0.00735000          -0.67854000         
C                    -1.44081000           1.30150000          -0.27335000         
C                    -1.43993000          -0.00013000           0.46020000         
C                    -1.43124000          -1.30922000          -0.25954000         
H                     0.83693000           0.01234000           1.00732000         
H                     2.34376000           0.91298000           1.30219000         
H                     2.34457000          -0.86294000           1.33049000         
H                     1.78770000           0.87030000          -1.18324000         
H                     1.79678000          -0.90437000          -1.15582000         
H                    -2.45689000           1.59338000          -0.61392000         
H                    -0.81154000           1.25292000          -1.17689000         
H                    -1.07137000           2.12580000           0.35631000         
H                    -1.72788000           0.00448000           1.51445000         
H                    -2.44536000          -1.61311000          -0.59534000         
H                    -1.05420000          -2.12371000           0.37831000         
H                     3.30238000          -0.00467000          -0.87632000         
H                    -0.80355000          -1.26506000          -1.16443000         
18
Image 18 energy:-0.02293 
C                     1.90563000           0.01443000           0.82153000         
C                     2.21915000          -0.00694000          -0.67843000         
C                    -1.43740000           1.30160000          -0.27292000         
C                    -1.43082000           0.00029000           0.46154000         
C                    -1.42745000          -1.30921000          -0.25858000         
H                     0.81810000           0.01316000           0.99939000         
H                     2.32555000           0.91254000           1.30334000         
H                     2.34015000          -0.86465000           1.33053000         
H                     1.79242000           0.87037000          -1.18689000         
H                     1.80142000          -0.90427000          -1.15880000         
H                    -2.45589000           1.59282000          -0.60309000         
H                    -0.81714000           1.25214000          -1.18217000         
H                    -1.06246000           2.12582000           0.35307000         
H                    -1.71263000           0.00488000           1.51665000         
H                    -2.44396000          -1.61241000          -0.58404000         
H                    -1.04484000          -2.12341000           0.37588000         
H                     3.30304000          -0.00456000          -0.86551000         
H                    -0.80895000          -1.26464000          -1.16920000         
18
Image 19 energy:-0.02281 
C                     1.89416000           0.01497000           0.81949000         
C                     2.21882000          -0.00724000          -0.67793000         
C                    -1.43526000           1.30154000          -0.27196000         
C                    -1.42039000           0.00007000           0.46187000         
C                    -1.42555000          -1.30917000          -0.25799000         
H                     0.80575000           0.01193000           0.98174000         
H                     2.30239000           0.91277000           1.30526000         
H                     2.30693000          -0.86330000           1.33326000         
H                     1.79597000           0.87032000          -1.19049000         
H                     1.80454000          -0.90428000          -1.16285000         
H                    -2.45774000           1.59416000          -0.59265000         
H                    -0.82350000           1.25229000          -1.18751000         
H                    -1.05277000           2.12576000           0.35002000         
H                    -1.68738000           0.00478000           1.52207000         
H                    -2.44600000          -1.61361000          -0.57411000         
H                    -1.03563000          -2.12354000           0.37229000         
H                     3.30574000          -0.00465000          -0.85716000         
H                    -0.81530000          -1.26473000          -1.17477000         
18
Image 20 energy:-0.02265 
C                     1.87768000           0.01454000           0.81620000         
C                     2.21857000          -0.00708000          -0.67787000         
C                    -1.43189000           1.30137000          -0.27119000         
C                    -1.41011000           0.00026000           0.46309000         
C                    -1.42204000          -1.30892000          -0.25701000         
H                     0.78897000           0.01223000           0.97171000         
H                     2.28868000           0.91305000           1.30533000         
H                     2.29937000          -0.86433000           1.33307000         