19
Image 1 energy:-0.04568 
C                     1.70487000          -0.99599000          -0.59552000         
C                     0.75002000           0.07037000          -0.14707000         
C                     1.20372000           0.99397000           0.94483000         
C                    -0.72160000          -0.12127000          -0.43141000         
C                    -1.35682000          -1.11806000           0.57803000         
C                    -1.52430000           1.19319000          -0.45886000         
H                     2.71845000          -0.59161000          -0.75523000         
H                     1.81203000          -1.80978000           0.15631000         
H                     1.07851000           0.53960000           1.95450000         
H                     0.64464000           1.94411000           0.95800000         
H                     2.28178000           1.22912000           0.84752000         
H                    -0.80528000          -0.58428000          -1.43243000         
H                    -1.28220000          -0.73064000           1.60451000         
H                    -0.85459000          -2.09421000           0.54494000         
H                    -2.42572000          -1.26934000           0.36025000         
H                    -1.59322000           1.63855000           0.54282000         
H                    -2.55066000           1.00670000          -0.80773000         
H                    -1.06351000           1.93030000          -1.12920000         
H                     1.37439000          -1.47305000          -1.53430000         
19
Image 2 energy:-0.04568 
C                     1.70067000          -1.00115000          -0.58773000         
C                     0.75099000           0.06944000          -0.13980000         
C                     1.21666000           1.00065000           0.93894000         
C                    -0.72072000          -0.11789000          -0.42787000         
C                    -1.36530000          -1.12273000           0.56191000         
C                    -1.52778000           1.19336000          -0.45117000         
H                     2.71184000          -0.59550000          -0.77158000         
H                     1.82637000          -1.80050000           0.17625000         
H                     1.15923000           0.53747000           1.94557000         
H                     0.62572000           1.92506000           0.98719000         
H                     2.26788000           1.28244000           0.78996000         
H                    -0.79937000          -0.57067000          -1.43348000         
H                    -1.34404000          -0.71657000           1.58696000         
H                    -0.82110000          -2.08003000           0.56774000         
H                    -2.41266000          -1.32866000           0.29302000         
H                    -1.57762000           1.65932000           0.54611000         
H                    -2.56194000           1.00444000          -0.77524000         
H                    -1.07722000           1.92201000          -1.14476000         
H                     1.35385000          -1.49691000          -1.50899000         
19
Image 3 energy:-0.04559 
C                     1.70593000          -1.00086000          -0.58506000         
C                     0.74757000           0.06139000          -0.13257000         
C                     1.21932000           1.00633000           0.93250000         
C                    -0.72233000          -0.11962000          -0.43008000         
C                    -1.37574000          -1.12829000           0.55742000         
C                    -1.52103000           1.19881000          -0.44541000         
H                     2.68596000          -0.57578000          -0.84932000         
H                     1.90534000          -1.75079000           0.20359000         
H                     1.20519000           0.54374000           1.94294000         
H                     0.60657000           1.91768000           0.99137000         
H                     2.26619000           1.31469000           0.75456000         
H                    -0.79615000          -0.56476000          -1.43855000         
H                    -1.38273000          -0.72556000           1.57845000         
H                    -0.83635000          -2.08351000           0.56681000         
H                    -2.42250000          -1.32766000           0.27273000         
H                    -1.59401000           1.62623000           0.56359000         
H                    -2.54683000           1.01733000          -0.79956000         
H                    -1.05990000           1.94834000          -1.09963000         
H                     1.32956000          -1.55147000          -1.45817000         
19
Image 4 energy:-0.04560 
C                     1.71135000          -0.99470000          -0.59287000         
C                     0.74921000           0.06133000          -0.13629000         
C                     1.21092000           0.99799000           0.93963000         
C                    -0.72103000          -0.12202000          -0.42702000         
C                    -1.37526000          -1.11832000           0.56462000         
C                    -1.52195000           1.19281000          -0.45163000         
H                     2.68514000          -0.55637000          -0.87911000         
H                     1.93430000          -1.73830000           0.20606000         
H                     1.14486000           0.54448000           1.95009000         
H                     0.62262000           1.92687000           0.97361000         
H                     2.26501000           1.27443000           0.79527000         
H                    -0.80099000          -0.57491000          -1.43247000         
H                    -1.28888000          -0.74372000           1.59738000         
H                    -0.88535000          -2.10355000           0.52173000         
H                    -2.44144000          -1.25868000           0.33672000         
H                    -1.62148000           1.63049000           0.55693000         
H                    -2.53814000           1.01630000          -0.83308000         
H                    -1.03212000           1.93826000          -1.10265000         
H                     1.32254000          -1.55886000          -1.45733000         
19
Image 5 energy:-0.04560 
C                     1.70854000          -0.99181000          -0.59825000         
C                     0.74611000           0.06600000          -0.14544000         
C                     1.20068000           0.98537000           0.94990000         
C                    -0.72507000          -0.12220000          -0.43365000         
C                    -1.35654000          -1.11624000           0.58156000         
C                    -1.52030000           1.19907000          -0.46501000         
H                     2.69476000          -0.56176000          -0.84507000         
H                     1.90091000          -1.75055000           0.18545000         
H                     1.08147000           0.52569000           1.95452000         
H                     0.63996000           1.93072000           0.97241000         
H                     2.27109000           1.22805000           0.84968000         
H                    -0.80991000          -0.58560000          -1.43242000         
H                    -1.26215000          -0.73304000           1.60760000         
H                    -0.86465000          -2.09750000           0.53640000         
H                    -2.43181000          -1.26191000           0.37962000         
H                    -1.59101000           1.63759000           0.53787000         
H                    -2.54785000           1.01929000          -0.81866000         
H                    -1.05780000           1.94015000          -1.12476000         
H                     1.34104000          -1.53167000          -1.48214000         
19
Image 6 energy:-0.04569 
C                     1.70318000          -0.99782000          -0.59736000         
C                     0.75263000           0.07183000          -0.14647000         
C                     1.20667000           0.99004000           0.94910000         
C                    -0.71946000          -0.11900000          -0.43035000         
C                    -1.35784000          -1.11353000           0.57485000         
C                    -1.52930000           1.19123000          -0.45819000         
H                     2.71389000          -0.59462000          -0.77004000         
H                     1.81726000          -1.80616000           0.15817000         
H                     1.08934000           0.53038000           1.95628000         
H                     0.64463000           1.93748000           0.96919000         
H                     2.27749000           1.23160000           0.84318000         
H                    -0.80255000          -0.57823000          -1.43255000         
H                    -1.29940000          -0.71056000           1.59815000         
H                    -0.83399000          -2.08086000           0.56263000         
H                    -2.41592000          -1.29322000           0.33931000         
H                    -1.57366000           1.66955000           0.53383000         
H                    -2.56457000           0.99569000          -0.77331000         
H                    -1.08246000           1.91138000          -1.16648000         
H                     1.36444000          -1.48328000          -1.52746000         
19
Image 7 energy:-0.04562 
C                     1.69913000          -1.00455000          -0.58492000         
C                     0.75092000           0.06969000          -0.14409000         
C                     1.21636000           1.00151000           0.93581000         
C                    -0.72160000          -0.11797000          -0.43382000         
C                    -1.36218000          -1.12118000           0.56244000         
C                    -1.52660000           1.19468000          -0.44532000         
H                     2.71936000          -0.60827000          -0.74581000         
H                     1.80050000          -1.81028000           0.17565000         
H                     1.15732000           0.53445000           1.94353000         
H                     0.62307000           1.92320000           0.98213000         
H                     2.27111000           1.28833000           0.79265000         
H                    -0.80047000          -0.56718000          -1.43923000         
H                    -1.36346000          -0.70170000           1.58065000         
H                    -0.80767000          -2.07327000           0.58849000         
H                    -2.40545000          -1.33880000           0.27905000         
H                    -1.57189000           1.64288000           0.55789000         
H                    -2.55999000           1.00281000          -0.76400000         
H                    -1.09352000           1.93303000          -1.12559000         
H                     1.36391000          -1.48937000          -1.51683000         
19
Image 8 energy:-0.04551 
C                     1.70054000          -1.00598000          -0.57849000         
C                     0.74761000           0.06369000          -0.13172000         
C                     1.22295000           1.01395000           0.92653000         
C                    -0.72264000          -0.11685000          -0.42684000         
C                    -1.37240000          -1.13551000           0.55032000         
C                    -1.52413000           1.19977000          -0.43976000         
H                     2.70073000          -0.59189000          -0.79582000         
H                     1.85343000          -1.78843000           0.19816000         
H                     1.20600000           0.56137000           1.94112000         
H                     0.61920000           1.92952000           0.98070000         
H                     2.27453000           1.30973000           0.74547000         
H                    -0.79868000          -0.55738000          -1.43785000         
H                    -1.36519000          -0.75461000           1.58241000         
H                    -0.83348000          -2.09206000           0.53321000         
H                    -2.41956000          -1.33568000           0.26989000         
H                    -1.57083000           1.65676000           0.56017000         
H                    -2.56591000           1.02493000          -0.77355000         
H                    -1.05642000           1.93415000          -1.13120000         
H                     1.33784000          -1.52359000          -1.48267000         
19
Image 9 energy:-0.04559 
C                     1.70946000          -1.00197000          -0.58151000         
C                     0.75006000           0.06245000          -0.13872000         
C                     1.21562000           1.00536000           0.92994000         
C                    -0.72077000          -0.11921000          -0.43007000         
C                    -1.37709000          -1.12372000           0.55526000         
C                    -1.52237000           1.19515000          -0.44156000         
H                     2.69108000          -0.57623000          -0.84807000         
H                     1.91093000          -1.74554000           0.21706000         
H                     1.18314000           0.54653000           1.93998000         
H                     0.60863000           1.92235000           0.98095000         
H                     2.25971000           1.30435000           0.76325000         
H                    -0.80051000          -0.56620000          -1.43890000         
H                    -1.29715000          -0.75196000           1.58889000         
H                    -0.88903000          -2.10853000           0.50958000         
H                    -2.44585000          -1.25652000           0.32668000         
H                    -1.61626000           1.61454000           0.57143000         
H                    -2.53629000           1.01199000          -0.81253000         
H                    -1.05558000           1.95169000          -1.07846000         
H                     1.33336000          -1.56152000          -1.44997000         
19
Image 10 energy:-0.04543 
C                     1.71093000          -0.99531000          -0.59105000         
C                     0.74690000           0.06441000          -0.14646000         
C                     1.20521000           0.99053000           0.94247000         
C                    -0.72394000          -0.12275000          -0.43706000         
C                    -1.36454000          -1.11332000           0.57390000         
C                    -1.52315000           1.19518000          -0.45245000         
H                     2.68857000          -0.56402000          -0.86786000         
H                     1.92211000          -1.73137000           0.21108000         
H                     1.13218000           0.51987000           1.94407000         
H                     0.61963000           1.91288000           0.99330000         
H                     2.26547000           1.26564000           0.81595000         
H                    -0.80725000          -0.57441000          -1.43958000         
H                    -1.25998000          -0.73582000           1.59932000         
H                    -0.88033000          -2.10025000           0.52147000         
H                    -2.43648000          -1.25382000           0.37027000         
H                    -1.62633000           1.61807000           0.55954000         
H                    -2.54478000           1.03400000          -0.85113000         
H                    -1.01699000           1.95057000          -1.08871000         
H                     1.33209000          -1.56437000          -1.45033000         
19
Image 11 energy:-0.04557 
C                     1.69711000          -1.00375000          -0.58722000         
C                     0.74706000           0.06933000          -0.14047000         
C                     1.20960000           0.99335000           0.94583000         
C                    -0.72380000          -0.11378000          -0.43214000         
C                    -1.34840000          -1.12517000           0.56659000         
C                    -1.52798000           1.20278000          -0.45964000         
H                     2.68983000          -0.58271000          -0.83401000         
H                     1.87375000          -1.76760000           0.20106000         
H                     1.11456000           0.53118000           1.95343000         
H                     0.63951000           1.93801000           0.97186000         
H                     2.27545000           1.24594000           0.81976000         
H                    -0.80512000          -0.56652000          -1.43673000         
H                    -1.26078000          -0.74932000           1.59807000         
H                    -0.84170000          -2.09885000           0.51759000         
H                    -2.42085000          -1.28047000           0.35882000         
H                    -1.58894000           1.65873000           0.53804000         
H                    -2.55477000           1.00738000          -0.78938000         
H                    -1.08291000           1.93358000          -1.14371000         
H                     1.32387000          -1.54029000          -1.48014000         
19
Image 12 energy:-0.04562 
C                     1.69839000          -1.00518000          -0.58615000         
C                     0.75289000           0.07117000          -0.14381000         
C                     1.21597000           1.00056000           0.93953000         
C                    -0.72044000          -0.11585000          -0.43183000         
C                    -1.36387000          -1.12208000           0.55991000         
C                    -1.52733000           1.19419000          -0.44547000         
H                     2.70043000          -0.60782000          -0.80369000         
H                     1.84504000          -1.78254000           0.19201000         
H                     1.15109000           0.53362000           1.94969000         
H                     0.62367000           1.92495000           0.98277000         
H                     2.27555000           1.28239000           0.80229000         
H                    -0.79901000          -0.56383000          -1.43845000         
H                    -1.35545000          -0.71242000           1.58281000         
H                    -0.81284000          -2.07526000           0.56903000         
H                    -2.40809000          -1.33596000           0.28031000         
H                    -1.55846000           1.66265000           0.55101000         
H                    -2.56843000           1.00534000          -0.75452000         
H                    -1.08863000           1.92039000          -1.14869000         
H                     1.33306000          -1.52316000          -1.48092000         
19
Image 13 energy:-0.04553 
C                     1.70598000          -1.00346000          -0.58100000         
C                     0.74431000           0.05919000          -0.13418000         
C                     1.22160000           1.00795000           0.92494000         
C                    -0.72502000          -0.11906000          -0.43001000         
C                    -1.37266000          -1.12801000           0.55524000         
C                    -1.52223000           1.19967000          -0.43846000         
H                     2.71068000          -0.58045000          -0.76529000         
H                     1.84364000          -1.79857000           0.18423000         
H                     1.20968000           0.55081000           1.92973000         
H                     0.61951000           1.91796000           0.99008000         
H                     2.25963000           1.30872000           0.74349000         
H                    -0.80373000          -0.56107000          -1.43802000         
H                    -1.37714000          -0.71612000           1.57818000         
H                    -0.83180000          -2.08541000           0.56759000         
H                    -2.42142000          -1.32789000           0.26821000         
H                    -1.58006000           1.64334000           0.56827000         
H                    -2.55457000           1.02163000          -0.77649000         
H                    -1.06475000           1.93908000          -1.11179000         
H                     1.37130000          -1.50588000          -1.50608000         
19
Image 14 energy:-0.04542 
C                     1.71052000          -1.00341000          -0.57969000         
C                     0.75494000           0.06663000          -0.14163000         
C                     1.22291000           1.01287000           0.92344000         
C                    -0.71926000          -0.12417000          -0.42888000         
C                    -1.38932000          -1.12519000           0.55189000         
C                    -1.52438000           1.19181000          -0.43220000         
H                     2.70432000          -0.58264000          -0.81257000         
H                     1.87818000          -1.76913000           0.20800000         
H                     1.18059000           0.55121000           1.94334000         
H                     0.61878000           1.93960000           0.96451000         
H                     2.28310000           1.29896000           0.75754000         
H                    -0.79753000          -0.56400000          -1.44028000         
H                    -1.32387000          -0.75147000           1.58398000         
H                    -0.89541000          -2.11059000           0.52541000         
H                    -2.45001000          -1.26928000           0.31248000         
H                    -1.62363000           1.60095000           0.58357000         
H                    -2.54047000           1.02027000          -0.81673000         
H                    -1.04182000           1.95498000          -1.06203000         
H                     1.34794000          -1.53971000          -1.47237000         
19
Image 15 energy:-0.04551 
C                     1.69736000          -1.01253000          -0.57233000         
C                     0.75164000           0.06814000          -0.14169000         
C                     1.21704000           1.01017000           0.92809000         
C                    -0.72160000          -0.11570000          -0.43409000         
C                    -1.36410000          -1.12823000           0.55038000         
C                    -1.52639000           1.19879000          -0.43745000         
H                     2.68372000          -0.60571000          -0.84286000         
H                     1.88465000          -1.75178000           0.23240000         
H                     1.21880000           0.53740000           1.92830000         
H                     0.59211000           1.90440000           1.00596000         
H                     2.24874000           1.33827000           0.74873000         
H                    -0.80027000          -0.55080000          -1.44661000         
H                    -1.25433000          -0.77168000           1.58766000         
H                    -0.87661000          -2.11468000           0.47921000         
H                    -2.43822000          -1.26080000           0.34153000         
H                    -1.63366000           1.61182000           0.57630000         
H                    -2.54157000           1.03275000          -0.83494000         
H                    -1.03781000           1.95825000          -1.06529000         
H                     1.31202000          -1.57330000          -1.43539000         
19
Image 16 energy:-0.04554 
C                     1.69149000          -1.01539000          -0.56670000         
C                     0.74488000           0.06697000          -0.13757000         
C                     1.22363000           1.01203000           0.92413000         
C                    -0.72629000          -0.10896000          -0.43362000         
C                    -1.35507000          -1.13861000           0.54354000         
C                    -1.52805000           1.20606000          -0.43537000         
H                     2.68729000          -0.60892000          -0.81293000         
H                     1.85989000          -1.76781000           0.23149000         
H                     1.20529000           0.54197000           1.93864000         
H                     0.61147000           1.92791000           0.98570000         
H                     2.27687000           1.31428000           0.74571000         
H                    -0.80466000          -0.54429000          -1.44503000         
H                    -1.31738000          -0.76221000           1.57644000         
H                    -0.81724000          -2.09458000           0.50682000         
H                    -2.40947000          -1.33047000           0.28864000         
H                    -1.58051000           1.65718000           0.56620000         
H                    -2.55761000           1.02490000          -0.76389000         
H                    -1.07613000           1.94194000          -1.11444000         
H                     1.31987000          -1.56302000          -1.44611000         
19
Image 17 energy:-0.04550 
C                     1.69555000          -1.01557000          -0.56549000         
C                     0.75171000           0.06777000          -0.13597000         
C                     1.23185000           1.02188000           0.91496000         
C                    -0.72261000          -0.11509000          -0.42648000         
C                    -1.37814000          -1.14160000           0.53499000         
C                    -1.52390000           1.20359000          -0.42641000         
H                     2.69064000          -0.61334000          -0.79753000         
H                     1.85149000          -1.77564000           0.22236000         
H                     1.26793000           0.54906000           1.91993000         
H                     0.59608000           1.91278000           1.00766000         
H                     2.25872000           1.35994000           0.70100000         
H                    -0.79796000          -0.54360000          -1.44407000         
H                    -1.39496000          -0.74940000           1.56775000         
H                    -0.82238000          -2.09217000           0.55252000         
H                    -2.41806000          -1.35106000           0.23368000         
H                    -1.57971000           1.63444000           0.58708000         
H                    -2.55599000           1.02085000          -0.75905000         
H                    -1.07641000           1.94941000          -1.09592000         
H                     1.33220000          -1.55116000          -1.45237000         
19
Image 18 energy:-0.04544 
C                     1.69447000          -1.01965000          -0.56194000         
C                     0.74685000           0.06213000          -0.13499000         
C                     1.22535000           1.02456000           0.91120000         
C                    -0.72016000          -0.10963000          -0.43828000         
C                    -1.36719000          -1.13696000           0.53972000         
C                    -1.52676000           1.19838000          -0.42013000         
H                     2.70581000          -0.61880000          -0.77369000         
H                     1.83064000          -1.79510000           0.22889000         
H                     1.26249000           0.55964000           1.92018000         
H                     0.58416000           1.91364000           0.99387000         
H                     2.25307000           1.36959000           0.70096000         
H                    -0.79784000          -0.54045000          -1.44989000         
H                    -1.31075000          -0.77225000           1.57161000         
H                    -0.85772000          -2.11010000           0.48724000         
H                    -2.42609000          -1.29691000           0.29483000         
H                    -1.63390000           1.60641000           0.59136000         
H                    -2.53715000           1.04257000          -0.81973000         
H                    -1.03193000           1.96247000          -1.03753000         
H                     1.33332000          -1.54505000          -1.46485000         
19
Image 19 energy:-0.04534 
C                     1.69860000          -1.01726000          -0.55869000         
C                     0.74713000           0.06029000          -0.13093000         
C                     1.22882000           1.02702000           0.90849000         
C                    -0.72706000          -0.11793000          -0.42723000         
C                    -1.37453000          -1.14124000           0.53057000         
C                    -1.52272000           1.20606000          -0.42454000         
H                     2.67727000          -0.59511000          -0.84583000         
H                     1.90863000          -1.74826000           0.25092000         