22
Image 1 energy:-0.00373 
C                     2.94283000           0.50359000          -0.07758000         
C                     2.10822000          -0.72952000           0.13762000         
C                     1.13231000          -1.14862000          -0.68178000         
C                    -1.43121000           0.24891000           0.11413000         
C                    -0.85705000           1.62135000          -0.06257000         
C                    -2.34695000          -0.29844000          -0.93743000         
C                    -1.45887000          -0.34025000           1.49095000         
H                     2.65270000           1.02847000          -0.99937000         
H                     2.83723000           1.20970000           0.76402000         
H                     2.32497000          -1.30616000           1.04382000         
H                     0.55620000          -2.05212000          -0.47820000         
H                     0.88346000          -0.60865000          -1.59804000         
H                    -1.56866000           2.41711000           0.24658000         
H                    -0.59807000           1.82317000          -1.11390000         
H                     0.05182000           1.75592000           0.54451000         
H                    -2.00356000          -0.03652000          -1.95134000         
H                    -3.38078000           0.09862000          -0.84496000         
H                    -2.42852000          -1.39549000          -0.87511000         
H                    -0.49888000          -0.18441000           2.00994000         
H                    -1.66188000          -1.42219000           1.46734000         
H                    -2.24508000           0.11798000           2.12915000         
H                     4.01602000           0.25698000          -0.14595000         
22
Image 2 energy:-0.00373 
C                     2.93310000           0.49807000          -0.05538000         
C                     2.09664000          -0.73830000           0.13276000         
C                     1.12803000          -1.14510000          -0.70330000         
C                    -1.42435000           0.25155000           0.11401000         
C                    -0.85939000           1.62612000          -0.07306000         
C                    -2.34699000          -0.30361000          -0.92712000         
C                    -1.43791000          -0.33193000           1.49336000         
H                     2.65105000           1.03668000          -0.97164000         
H                     2.82154000           1.19067000           0.79567000         
H                     2.30447000          -1.32863000           1.03213000         
H                     0.54962000          -2.05158000          -0.51832000         
H                     0.88994000          -0.59284000          -1.61418000         
H                    -1.57250000           2.41746000           0.24171000         
H                    -0.61399000           1.82591000          -1.12867000         
H                     0.05525000           1.76844000           0.52351000         
H                    -2.01025000          -0.04955000          -1.94540000         
H                    -3.37979000           0.09466000          -0.83104000         
H                    -2.42799000          -1.40007000          -0.85551000         
H                    -0.47572000          -0.17138000           2.00439000         
H                    -1.63964000          -1.41449000           1.47553000         
H                    -2.21952000           0.12786000           2.13363000         
H                     4.00624000           0.25175000          -0.11871000         
22
Image 3 energy:-0.00373 
C                     2.92990000           0.48924000          -0.03409000         
C                     2.08928000          -0.74785000           0.12795000         
C                     1.12717000          -1.13692000          -0.72190000         
C                    -1.42343000           0.25490000           0.11370000         
C                    -0.86585000           1.63114000          -0.08432000         
C                    -2.35033000          -0.31077000          -0.91827000         
C                    -1.41923000          -0.32297000           1.49579000         
H                     2.65953000           1.03986000          -0.94716000         
H                     2.80571000           1.17263000           0.82443000         
H                     2.28824000          -1.35450000           1.01942000         
H                     0.54472000          -2.04426000          -0.55738000         
H                     0.89714000          -0.56681000          -1.62534000         
H                    -1.57648000           2.42204000           0.23888000         
H                    -0.63420000           1.82952000          -1.14307000         
H                     0.05654000           1.77694000           0.49997000         
H                    -2.02146000          -0.05921000          -1.93952000         
H                    -3.38521000           0.08162000          -0.81740000         
H                    -2.42433000          -1.40752000          -0.84159000         
H                    -0.44743000          -0.15828000           1.99115000         
H                    -1.61610000          -1.40683000           1.48619000         
H                    -2.19367000           0.13645000           2.14882000         
H                     4.00493000           0.24372000          -0.08576000         
22
Image 4 energy:-0.00372 
C                     2.94393000           0.48032000          -0.01344000         
C                     2.09837000          -0.75613000           0.12262000         
C                     1.13263000          -1.12598000          -0.73384000         
C                    -1.42738000           0.25548000           0.11081000         
C                    -0.87980000           1.63425000          -0.09767000         
C                    -2.36561000          -0.31603000          -0.90724000         
C                    -1.41236000          -0.31547000           1.49526000         
H                     2.67427000           1.05269000          -0.91142000         
H                     2.83099000           1.14252000           0.85943000         
H                     2.29685000          -1.38022000           1.00037000         
H                     0.54775000          -2.03455000          -0.58505000         
H                     0.90026000          -0.53711000          -1.62298000         
H                    -1.58930000           2.42113000           0.23609000         
H                    -0.66785000           1.83263000          -1.16060000         
H                     0.05110000           1.78575000           0.47057000         
H                    -2.04582000          -0.07539000          -1.93398000         
H                    -3.39759000           0.08228000          -0.80006000         
H                    -2.44405000          -1.41148000          -0.81921000         
H                    -0.45064000          -0.12997000           1.99680000         
H                    -1.59142000          -1.40098000           1.48983000         
H                    -2.19808000           0.13309000           2.13674000         
H                     4.01442000           0.22889000          -0.07667000         
22
Image 5 energy:-0.00370 
C                     2.94326000           0.47268000           0.00587000         
C                     2.09819000          -0.76728000           0.11725000         
C                     1.12896000          -1.11354000          -0.74277000         
C                    -1.42767000           0.25857000           0.10987000         
C                    -0.88842000           1.63887000          -0.11055000         
C                    -2.36762000          -0.32482000          -0.90055000         
C                    -1.39841000          -0.30743000           1.49606000         
H                     2.66223000           1.07177000          -0.87540000         
H                     2.83452000           1.11190000           0.90184000         
H                     2.30039000          -1.41377000           0.97958000         
H                     0.54301000          -2.02472000          -0.61526000         
H                     0.89967000          -0.50566000          -1.62116000         
H                    -1.59676000           2.42587000           0.22658000         
H                    -0.68754000           1.83304000          -1.17593000         
H                     0.04777000           1.79596000           0.44758000         
H                    -2.05293000          -0.09100000          -1.93115000         
H                    -3.40108000           0.06997000          -0.79223000         
H                    -2.44005000          -1.41988000          -0.80355000         
H                    -0.43865000          -0.08763000           1.99530000         
H                    -1.53812000          -1.40158000           1.49047000         
H                    -2.20134000           0.11440000           2.14256000         
H                     4.01744000           0.22349000          -0.07377000         
22
Image 6 energy:-0.00373 
C                     2.93455000           0.46626000           0.02529000         
C                     2.07774000          -0.76600000           0.11830000         
C                     1.12483000          -1.10712000          -0.76248000         
C                    -1.42089000           0.25903000           0.10815000         
C                    -0.89085000           1.64142000          -0.11868000         
C                    -2.36440000          -0.33283000          -0.89284000         
C                    -1.37407000          -0.30312000           1.49529000         
H                     2.68814000           1.05877000          -0.86635000         
H                     2.80381000           1.11160000           0.90952000         
H                     2.25445000          -1.41167000           0.98504000         
H                     0.52893000          -2.01243000          -0.64563000         
H                     0.91570000          -0.49636000          -1.64295000         
H                    -1.60029000           2.42408000           0.22479000         
H                    -0.70163000           1.83549000          -1.18628000         
H                     0.04941000           1.80484000           0.43035000         
H                    -2.06401000          -0.09216000          -1.92519000         
H                    -3.40128000           0.04776000          -0.77198000         
H                    -2.42215000          -1.42902000          -0.79863000         
H                    -0.40330000          -0.10128000           1.97456000         
H                    -1.53568000          -1.39195000           1.49932000         
H                    -2.15298000           0.13742000           2.15281000         
H                     4.00606000           0.20995000          -0.01831000         
22
Image 7 energy:-0.00359 
C                     2.93217000           0.46771000           0.02055000         
C                     2.07620000          -0.76480000           0.11785000         
C                     1.12762000          -1.10719000          -0.76289000         
C                    -1.42164000           0.25743000           0.10837000         
C                    -0.88972000           1.64013000          -0.11180000         
C                    -2.36355000          -0.33147000          -0.89613000         
C                    -1.37470000          -0.30512000           1.49605000         
H                     2.73090000           1.02285000          -0.91104000         
H                     2.74525000           1.15100000           0.87334000         
H                     2.24165000          -1.39794000           0.99549000         
H                     0.52814000          -2.00976000          -0.64234000         
H                     0.93189000          -0.51116000          -1.65220000         
H                    -1.59647000           2.42228000           0.23998000         
H                    -0.70215000           1.83997000          -1.17823000         
H                     0.05257000           1.79791000           0.43588000         
H                    -2.06020000          -0.08968000          -1.92741000         
H                    -3.39992000           0.05074000          -0.77742000         
H                    -2.42275000          -1.42772000          -0.80367000         
H                    -0.37606000          -0.16095000           1.94926000         
H                    -1.60308000          -1.38414000           1.50659000         
H                    -2.10818000           0.18819000           2.17707000         
H                     4.00979000           0.21480000           0.04812000         
22
Image 8 energy:-0.00373 
C                     2.93688000           0.46977000           0.01239000         
C                     2.08262000          -0.76388000           0.11947000         
C                     1.12473000          -1.11327000          -0.75403000         
C                    -1.42127000           0.25824000           0.10988000         
C                    -0.88681000           1.64054000          -0.11058000         
C                    -2.36258000          -0.32669000          -0.89812000         
C                    -1.38581000          -0.30746000           1.49547000         
H                     2.68455000           1.05496000          -0.88337000         
H                     2.81028000           1.12306000           0.89163000         
H                     2.26654000          -1.40399000           0.99018000         
H                     0.53209000          -2.02042000          -0.62715000         
H                     0.90884000          -0.50982000          -1.63870000         
H                    -1.59417000           2.42388000           0.23545000         
H                    -0.69601000           1.83885000          -1.17755000         
H                     0.05383000           1.79854000           0.43988000         
H                    -2.05070000          -0.09034000          -1.92855000         
H                    -3.39751000           0.06417000          -0.78694000         
H                    -2.43199000          -1.42208000          -0.80238000         
H                    -0.41994000          -0.10635000           1.98485000         
H                    -1.54759000          -1.39678000           1.49482000         
H                    -2.17100000           0.13157000           2.14544000         
H                     4.00776000           0.21430000          -0.03379000         
22
Image 9 energy:-0.00364 
C                     2.93248000           0.46476000           0.02718000         
C                     2.07789000          -0.77177000           0.11576000         
C                     1.11775000          -1.10256000          -0.75792000         
C                    -1.41918000           0.26137000           0.10849000         
C                    -0.88996000           1.64360000          -0.12162000         
C                    -2.36102000          -0.33324000          -0.89354000         
C                    -1.37202000          -0.30338000           1.49543000         
H                     2.64568000           1.08837000          -0.83467000         
H                     2.83787000           1.07864000           0.94379000         
H                     2.26000000          -1.41906000           0.97929000         
H                     0.52471000          -2.01095000          -0.64228000         
H                     0.90924000          -0.49972000          -1.63806000         
H                    -1.59703000           2.42891000           0.22060000         
H                    -0.70178000           1.83249000          -1.19137000         
H                     0.05327000           1.80704000           0.42421000         
H                    -2.05179000          -0.10350000          -1.92626000         
H                    -3.39563000           0.05662000          -0.78361000         
H                    -2.42661000          -1.42818000          -0.79045000         
H                    -0.41137000          -0.07716000           1.98584000         
H                    -1.50316000          -1.39720000           1.49252000         
H                    -2.17156000           0.11131000           2.14799000         
H                     4.00509000           0.21377000          -0.07531000         
22
Image 10 energy:-0.00369 
C                     2.93347000           0.45935000           0.04224000         
C                     2.07078000          -0.77095000           0.11680000         
C                     1.12243000          -1.09902000          -0.77671000         
C                    -1.41941000           0.25979000           0.10669000         
C                    -0.89651000           1.64449000          -0.12604000         
C                    -2.36593000          -0.33933000          -0.88694000         
C                    -1.35870000          -0.29713000           1.49567000         
H                     2.70307000           1.05335000          -0.85246000         
H                     2.79228000           1.10526000           0.92245000         
H                     2.23887000          -1.43161000           0.97611000         
H                     0.52036000          -2.00295000          -0.67615000         
H                     0.91957000          -0.46871000          -1.64968000         
H                    -1.60424000           2.42453000           0.22621000         
H                    -0.71872000           1.84088000          -1.19462000         
H                     0.04796000           1.81075000           0.41398000         
H                    -2.06576000          -0.10975000          -1.92269000         
H                    -3.40123000           0.04567000          -0.76965000         
H                    -2.42571000          -1.43413000          -0.78182000         
H                    -0.38056000          -0.09795000           1.96360000         
H                    -1.52672000          -1.38495000           1.50537000         
H                    -2.12790000           0.15082000           2.16151000         
H                     4.00326000           0.19914000           0.01473000         
22
Image 11 energy:-0.00366 
C                     2.94768000           0.44851000           0.05910000         
C                     2.07819000          -0.77819000           0.10795000         
C                     1.12579000          -1.08451000          -0.78504000         
C                    -1.42507000           0.26208000           0.10477000         
C                    -0.91156000           1.64772000          -0.13633000         
C                    -2.37760000          -0.34575000          -0.87862000         
C                    -1.35061000          -0.29173000           1.49530000         
H                     2.74826000           1.05128000          -0.84224000         
H                     2.77446000           1.09009000           0.94591000         
H                     2.23558000          -1.43948000           0.96444000         
H                     0.51703000          -1.98387000          -0.68855000         
H                     0.92995000          -0.45861000          -1.65252000         
H                    -1.61936000           2.42458000           0.22299000         
H                    -0.74797000           1.84182000          -1.20805000         
H                     0.04018000           1.81909000           0.39190000         
H                    -2.09214000          -0.11231000          -1.91741000         
H                    -3.41626000           0.02787000          -0.74866000         
H                    -2.42470000          -1.44184000          -0.77366000         
H                    -0.36646000          -0.09474000           1.95115000         
H                    -1.52120000          -1.37937000           1.51072000         
H                    -2.11106000           0.16042000           2.16678000         
H                     4.02000000           0.18437000           0.06855000         
22
Image 12 energy:-0.00370 
C                     2.96026000           0.43923000           0.07542000         
C                     2.08520000          -0.78455000           0.10764000         
C                     1.12983000          -1.06874000          -0.79115000         
C                    -1.43007000           0.26144000           0.10296000         
C                    -0.92180000           1.64837000          -0.15053000         
C                    -2.39073000          -0.35075000          -0.86938000         
C                    -1.34625000          -0.28633000           1.49380000         
H                     2.73460000           1.06763000          -0.79588000         
H                     2.82709000           1.05271000           0.97960000         
H                     2.25082000          -1.47734000           0.94163000         
H                     0.51977000          -1.96997000          -0.71991000         
H                     0.93162000          -0.40989000          -1.64146000         
H                    -1.63082000           2.42802000           0.20085000         
H                    -0.76032000           1.83148000          -1.22573000         
H                     0.03004000           1.82928000           0.37332000         
H                    -2.12317000          -0.11031000          -1.91075000         
H                    -3.42985000           0.01330000          -0.72107000         
H                    -2.42756000          -1.44717000          -0.76874000         
H                    -0.36846000          -0.06676000           1.95089000         
H                    -1.49226000          -1.37727000           1.50996000         
H                    -2.11800000           0.14948000           2.16465000         
H                     4.02717000           0.16973000           0.03479000         
22
Image 13 energy:-0.00369 
C                     2.96068000           0.42983000           0.09639000         
C                     2.07915000          -0.78823000           0.10552000         
C                     1.13082000          -1.05756000          -0.80521000         
C                    -1.43002000           0.26346000           0.10025000         
C                    -0.93004000           1.65017000          -0.16338000         
C                    -2.39623000          -0.35915000          -0.86028000         
C                    -1.32877000          -0.27867000           1.49253000         
H                     2.71508000           1.09715000          -0.74437000         
H                     2.85533000           1.00733000           1.03289000         
H                     2.23385000          -1.48672000           0.93428000         
H                     0.51706000          -1.95688000          -0.74843000         
H                     0.94403000          -0.39370000          -1.65012000         
H                    -1.64373000           2.42475000           0.18827000         
H                    -0.77491000           1.83271000          -1.23761000         
H                     0.02121000           1.83774000           0.35733000         
H                    -2.14258000          -0.11838000          -1.90566000         
H                    -3.43760000          -0.00476000          -0.70088000         
H                    -2.42202000          -1.45582000          -0.75675000         
H                    -0.35152000          -0.04302000           1.94120000         
H                    -1.45799000          -1.37274000           1.51547000         
H                    -2.10223000           0.14753000           2.16416000         
H                     4.02687000           0.15348000           0.01723000         
22
Image 14 energy:-0.00369 
C                     2.94744000           0.43047000           0.11541000         
C                     2.06961000          -0.79194000           0.09927000         
C                     1.13177000          -1.05265000          -0.82498000         
C                    -1.42576000           0.26291000           0.10262000         
C                    -0.93290000           1.65138000          -0.17057000         
C                    -2.39278000          -0.36614000          -0.85273000         
C                    -1.31246000          -0.27474000           1.49572000         
H                     2.73585000           1.08998000          -0.73946000         
H                     2.80198000           1.01640000           1.04026000         
H                     2.21372000          -1.50080000           0.92295000         
H                     0.51724000          -1.95313000          -0.78563000         
H                     0.95484000          -0.37777000          -1.66574000         
H                    -1.65419000           2.42821000           0.16257000         
H                    -0.76851000           1.81744000          -1.24902000         
H                     0.01511000           1.85378000           0.35448000         
H                    -2.13909000          -0.13348000          -1.89953000         
H                    -3.43388000          -0.00975000          -0.69600000         
H                    -2.41892000          -1.46203000          -0.74093000         
H                    -0.31966000          -0.06264000           1.92379000         
H                    -1.46918000          -1.36416000           1.52673000         
H                    -2.05978000           0.17678000           2.18244000         
H                     4.01348000           0.15650000           0.08296000         
22
Image 15 energy:-0.00364 
C                     2.95297000           0.43642000           0.09585000         
C                     2.07422000          -0.78516000           0.10223000         
C                     1.12930000          -1.05951000          -0.81130000         
C                    -1.42588000           0.25995000           0.10099000         
C                    -0.92647000           1.64828000          -0.15713000         
C                    -2.39170000          -0.36024000          -0.86108000         
C                    -1.32582000          -0.28145000           1.49430000         
H                     2.76104000           1.06524000          -0.78630000         
H                     2.78351000           1.05133000           0.99764000         
H                     2.22307000          -1.48011000           0.93544000         
H                     0.51407000          -1.95801000          -0.75380000         
H                     0.94567000          -0.39668000          -1.65844000         
H                    -1.64397000           2.41924000           0.18467000         
H                    -0.75916000           1.83503000          -1.22563000         
H                     0.01283000           1.83779000           0.37365000         
H                    -2.13230000          -0.12772000          -1.90684000         
H                    -3.43063000           0.00272000          -0.70847000         
H                    -2.42646000          -1.45599000          -0.75088000         
H                    -0.33456000          -0.07754000           1.92933000         
H                    -1.49361000          -1.36942000           1.52433000         
H                    -2.07378000           0.17632000           2.17490000         
H                     4.02282000           0.16507000           0.10086000         
22
Image 16 energy:-0.00364 
C                     2.95434000           0.44230000           0.07623000         
C                     2.07744000          -0.77893000           0.10874000         
C                     1.12469000          -1.06516000          -0.79327000         
C                    -1.42815000           0.25897000           0.10231000         
C                    -0.91719000           1.64509000          -0.14858000         
C                    -2.38614000          -0.35391000          -0.87148000         
C                    -1.33995000          -0.28962000           1.49375000         
H                     2.73860000           1.06681000          -0.80177000         
H                     2.80849000           1.06023000           0.97661000         
H                     2.23797000          -1.46736000           0.94552000         
H                     0.50931000          -1.96260000          -0.72032000         
H                     0.92995000          -0.40891000          -1.64517000         
H                    -1.61842000           2.42615000           0.22890000         
H                    -0.77809000           1.83483000          -1.22860000         
H                     0.05279000           1.81712000           0.35811000         
H                    -2.11801000          -0.11203000          -1.91261000         
H                    -3.42612000           0.00698000          -0.72359000         
H                    -2.42002000          -1.45050000          -0.77161000         
H                    -0.35191000          -0.08543000           1.94023000         
H                    -1.50409000          -1.37789000           1.51289000         
H                    -2.09674000           0.16078000           2.17304000         