25
Image 1 energy:-0.03922 
C                     2.62176000          -0.04906000          -0.67266000         
C                     1.10406000          -0.00717000          -0.91155000         
C                     0.19575000          -0.01581000           0.36555000         
C                     0.47578000          -1.28903000           1.20131000         
C                     0.51539000           1.21323000           1.24880000         
C                    -1.25815000           0.01966000          -0.09845000         
C                    -1.89513000          -1.21219000          -0.67650000         
C                    -1.90320000           1.33676000          -0.42918000         
H                     3.15685000          -0.03781000          -1.63475000         
H                     2.92574000          -0.96008000          -0.13854000         
H                     2.97148000           0.81623000          -0.09162000         
H                     0.82043000          -0.87038000          -1.53577000         
H                     0.85869000           0.89372000          -1.49848000         
H                     1.47078000          -1.24029000           1.66429000         
H                     0.44350000          -2.19928000           0.58677000         
H                    -0.26590000          -1.39396000           2.00732000         
H                     1.53106000           1.14395000           1.66158000         
H                    -0.18419000           1.27402000           2.09538000         
H                     0.44936000           2.15294000           0.68235000         
H                    -1.61908000          -1.36929000          -1.74148000         
H                    -2.99319000          -1.13279000          -0.65536000         
H                    -1.61504000          -2.13234000          -0.14440000         
H                    -2.96060000           1.20276000          -0.69813000         
H                    -1.41866000           1.84246000          -1.29052000         
H                    -1.85966000           2.05319000           0.40626000         
25
Image 2 energy:-0.03914 
C                     2.62308000          -0.05899000          -0.66984000         
C                     1.10593000          -0.00830000          -0.90932000         
C                     0.19519000          -0.01053000           0.36510000         
C                     0.47344000          -1.28556000           1.19919000         
C                     0.51874000           1.21735000           1.24745000         
C                    -1.26041000           0.02231000          -0.09711000         
C                    -1.88584000          -1.21191000          -0.68426000         
C                    -1.91462000           1.33555000          -0.42271000         
H                     3.15548000          -0.08761000          -1.63391000         
H                     2.91632000          -0.95585000          -0.10808000         
H                     2.98691000           0.81897000          -0.11845000         
H                     0.81970000          -0.87203000          -1.53053000         
H                     0.86649000           0.89091000          -1.50182000         
H                     1.46025000          -1.23312000           1.67549000         
H                     0.45456000          -2.19160000           0.57878000         
H                    -0.28169000          -1.40142000           1.99275000         
H                     1.54030000           1.15237000           1.64820000         
H                    -0.17173000           1.27027000           2.10343000         
H                     0.44084000           2.15927000           0.68600000         
H                    -1.57143000          -1.38744000          -1.73815000         
H                    -2.98465000          -1.12739000          -0.70292000         
H                    -1.62879000          -2.12597000          -0.12627000         
H                    -2.98431000           1.19938000          -0.64292000         
H                    -1.46843000           1.82372000          -1.31805000         
H                    -1.82936000           2.06839000           0.39718000         
25
Image 3 energy:-0.03918 
C                     2.62000000          -0.04303000          -0.67075000         
C                     1.10309000          -0.00636000          -0.90997000         
C                     0.19454000          -0.01751000           0.36731000         
C                     0.47309000          -1.29084000           1.20358000         
C                     0.51607000           1.21065000           1.25030000         
C                    -1.25700000           0.01968000          -0.09952000         
C                    -1.89725000          -1.21300000          -0.67193000         
C                    -1.89683000           1.33647000          -0.44137000         
H                     3.15758000          -0.02754000          -1.62980000         
H                     2.92547000          -0.95367000          -0.13825000         
H                     2.96529000           0.82112000          -0.08711000         
H                     0.82258000          -0.86997000          -1.53379000         
H                     0.85483000           0.89221000          -1.49708000         
H                     1.46658000          -1.23937000           1.67313000         
H                     0.44638000          -2.20218000           0.58935000         
H                    -0.27076000          -1.39570000           2.00697000         
H                     1.53582000           1.14586000           1.65287000         
H                    -0.17545000           1.26622000           2.10318000         
H                     0.44097000           2.15068000           0.68570000         
H                    -1.61578000          -1.37554000          -1.73514000         
H                    -2.99492000          -1.12794000          -0.65541000         
H                    -1.62309000          -2.13184000          -0.13735000         
H                    -2.95857000           1.20959000          -0.69034000         
H                    -1.42289000           1.82191000          -1.31523000         
H                    -1.83600000           2.06305000           0.37901000         
25
Image 4 energy:-0.03916 
C                     2.62081000          -0.03648000          -0.66738000         
C                     1.10431000          -0.00261000          -0.90940000         
C                     0.19466000          -0.01853000           0.36602000         
C                     0.47990000          -1.29633000           1.19168000         
C                     0.51030000           1.20646000           1.25544000         
C                    -1.25870000           0.01968000          -0.09822000         
C                    -1.91054000          -1.21442000          -0.65245000         
C                    -1.88502000           1.33773000          -0.45805000         
H                     3.16046000          -0.02106000          -1.62603000         
H                     2.93017000          -0.94364000          -0.12895000         
H                     2.95952000           0.83283000          -0.08606000         
H                     0.82424000          -0.86315000          -1.53781000         
H                     0.86042000           0.89985000          -1.49406000         
H                     1.47800000          -1.24874000           1.64993000         
H                     0.44432000          -2.20244000           0.57033000         
H                    -0.25811000          -1.40840000           2.00204000         
H                     1.52180000           1.13201000           1.67860000         
H                    -0.20042000           1.26726000           2.09382000         
H                     0.45251000           2.14755000           0.69033000         
H                    -1.66986000          -1.36805000          -1.72836000         
H                    -3.00998000          -1.13898000          -0.59515000         
H                    -1.60830000          -2.13462000          -0.12646000         
H                    -2.93443000           1.20604000          -0.76541000         
H                    -1.36379000           1.83786000          -1.30418000         
H                    -1.86870000           2.05925000           0.37828000         
25
Image 5 energy:-0.03908 
C                     2.62140000          -0.04146000          -0.66743000         
C                     1.10631000           0.01346000          -0.91114000         
C                     0.19602000          -0.01510000           0.36537000         
C                     0.48188000          -1.29907000           1.18066000         
C                     0.50757000           1.20210000           1.27166000         
C                    -1.25873000           0.02149000          -0.09759000         
C                    -1.91611000          -1.21801000          -0.63425000         
C                    -1.88248000           1.33451000          -0.47992000         
H                     3.15915000          -0.01540000          -1.62981000         
H                     2.92370000          -0.95888000          -0.14019000         
H                     2.96714000           0.81859000          -0.07385000         
H                     0.81549000          -0.83408000          -1.55082000         
H                     0.86981000           0.92734000          -1.47912000         
H                     1.48326000          -1.25775000           1.62995000         
H                     0.43950000          -2.20257000           0.55346000         
H                    -0.24979000          -1.41255000           1.99649000         
H                     1.51438000           1.12025000           1.70707000         
H                    -0.21089000           1.26151000           2.10290000         
H                     0.46231000           2.14901000           0.71400000         
H                    -1.67691000          -1.38810000          -1.70628000         
H                    -3.00782000          -1.13970000          -0.57227000         
H                    -1.61874000          -2.13313000          -0.10057000         
H                    -2.92808000           1.20277000          -0.77792000         
H                    -1.36871000           1.81459000          -1.33509000         
H                    -1.85748000           2.07289000           0.33645000         
25
Image 6 energy:-0.03880 
C                     2.62414000          -0.04440000          -0.66862000         
C                     1.10721000           0.02682000          -0.90768000         
C                     0.19414000          -0.01169000           0.36643000         
C                     0.47595000          -1.30186000           1.17112000         
C                     0.51149000           1.19700000           1.27674000         
C                    -1.25490000           0.02392000          -0.10273000         
C                    -1.91326000          -1.22211000          -0.62139000         
C                    -1.88587000           1.33339000          -0.48753000         
H                     3.16167000          -0.09272000          -1.62494000         
H                     2.91140000          -0.93149000          -0.08349000         
H                     2.98513000           0.84414000          -0.13084000         
H                     0.81010000          -0.81555000          -1.55901000         
H                     0.87700000           0.94541000          -1.47206000         
H                     1.46733000          -1.25877000           1.64726000         
H                     0.45049000          -2.20267000           0.53731000         
H                    -0.26741000          -1.42303000           1.97107000         
H                     1.52788000           1.12733000           1.68305000         
H                    -0.18642000           1.22741000           2.12780000         
H                     0.43418000           2.15087000           0.73839000         
H                    -1.65584000          -1.41490000          -1.69069000         
H                    -3.02400000          -1.11847000          -0.58878000         
H                    -1.63416000          -2.12828000          -0.07595000         
H                    -2.94543000           1.19523000          -0.76501000         
H                    -1.38230000           1.80915000          -1.35707000         
H                    -1.84973000           2.07366000           0.32939000         
25
Image 7 energy:-0.03856 
C                     2.62368000          -0.05378000          -0.66479000         
C                     1.10884000           0.03607000          -0.91181000         
C                     0.19706000          -0.00848000           0.36400000         
C                     0.48069000          -1.30183000           1.16691000         
C                     0.50773000           1.19732000           1.28464000         
C                    -1.25984000           0.02565000          -0.09785000         
C                    -1.91271000          -1.22173000          -0.62563000         
C                    -1.88956000           1.33257000          -0.49041000         
H                     3.16249000          -0.10498000          -1.62732000         
H                     2.89281000          -0.94970000          -0.08541000         
H                     3.00528000           0.82567000          -0.12332000         
H                     0.80998000          -0.79598000          -1.56746000         
H                     0.88668000           0.96804000          -1.45898000         
H                     1.46235000          -1.25640000           1.65340000         
H                     0.46874000          -2.19334000           0.52767000         
H                    -0.27945000          -1.43787000           1.95215000         
H                     1.53878000           1.13963000           1.65748000         
H                    -0.15737000           1.21692000           2.15283000         
H                     0.40065000           2.15013000           0.75301000         
H                    -1.63645000          -1.44408000          -1.67402000         
H                    -2.99553000          -1.13539000          -0.60048000         
H                    -1.65891000          -2.12226000          -0.02402000         
H                    -2.95997000           1.20475000          -0.71587000         
H                    -1.42206000           1.75946000          -1.40528000         
H                    -1.80215000           2.10648000           0.28724000         
25
Image 8 energy:-0.03877 
C                     2.62445000          -0.05903000          -0.66348000         
C                     1.11083000           0.04178000          -0.90746000         
C                     0.19364000          -0.00763000           0.36389000         
C                     0.48077000          -1.30105000           1.16354000         
C                     0.51024000           1.19879000           1.27830000         
C                    -1.26137000           0.02626000          -0.09758000         
C                    -1.90889000          -1.22524000          -0.61893000         
C                    -1.89452000           1.33240000          -0.48862000         
H                     3.16507000          -0.08350000          -1.62230000         
H                     2.88281000          -0.97940000          -0.12227000         
H                     3.01245000           0.79454000          -0.08733000         
H                     0.80832000          -0.78471000          -1.57349000         
H                     0.89363000           0.97270000          -1.45603000         
H                     1.45381000          -1.24205000           1.66830000         
H                     0.49951000          -2.18833000           0.51702000         
H                    -0.28517000          -1.45674000           1.93412000         
H                     1.54041000           1.14104000           1.65947000         
H                    -0.16851000           1.20422000           2.15049000         
H                     0.40327000           2.15999000           0.75196000         
H                    -1.57885000          -1.47326000          -1.64976000         
H                    -3.01033000          -1.10634000          -0.67805000         
H                    -1.68674000          -2.10571000          -0.02207000         
H                    -2.97189000           1.21390000          -0.65449000         
H                    -1.47813000           1.73675000          -1.43330000         
H                    -1.75484000           2.12213000           0.26451000         
25
Image 9 energy:-0.03882 
C                     2.61753000          -0.06307000          -0.66816000         
C                     1.10354000           0.03287000          -0.90841000         
C                     0.19542000          -0.00680000           0.36896000         
C                     0.48003000          -1.29908000           1.17419000         
C                     0.51110000           1.20594000           1.27722000         
C                    -1.25536000           0.02642000          -0.09900000         
C                    -1.89741000          -1.22129000          -0.63885000         
C                    -1.89830000           1.33104000          -0.47897000         
H                     3.15991000          -0.03867000          -1.61925000         
H                     2.89273000          -1.00095000          -0.16661000         
H                     2.99286000           0.76763000          -0.05382000         
H                     0.79856000          -0.79400000          -1.56963000         
H                     0.88524000           0.96507000          -1.45433000         
H                     1.45698000          -1.23731000           1.67845000         
H                     0.50003000          -2.18578000           0.52193000         
H                    -0.29048000          -1.45781000           1.94683000         
H                     1.53332000           1.13857000           1.67222000         
H                    -0.17746000           1.24061000           2.13429000         
H                     0.42789000           2.15781000           0.73356000         
H                    -1.54481000          -1.47722000          -1.66281000         
H                    -2.98447000          -1.09584000          -0.70020000         
H                    -1.70618000          -2.11590000          -0.00052000         
H                    -2.98581000           1.21409000          -0.60275000         
H                    -1.51651000           1.72755000          -1.44154000         
H                    -1.73392000           2.12031000           0.26303000         
25
Image 10 energy:-0.03900 
C                     2.61745000          -0.06793000          -0.66790000         
C                     1.10212000           0.02238000          -0.90749000         
C                     0.19377000          -0.00707000           0.36909000         
C                     0.48064000          -1.29162000           1.18474000         
C                     0.51382000           1.21106000           1.26944000         
C                    -1.26219000           0.02410000          -0.09170000         
C                    -1.88911000          -1.21955000          -0.65676000         
C                    -1.90308000           1.33030000          -0.46531000         
H                     3.15665000          -0.00061000          -1.62921000         
H                     2.90034000          -1.01316000          -0.18777000         
H                     2.97495000           0.75158000          -0.03421000         
H                     0.79394000          -0.80650000          -1.56534000         
H                     0.88144000           0.95500000          -1.45626000         
H                     1.47333000          -1.23625000           1.65610000         
H                     0.46555000          -2.18861000           0.54643000         
H                    -0.26756000          -1.42815000           1.98317000         
H                     1.53048000           1.13485000           1.67999000         
H                    -0.18254000           1.26480000           2.11725000         
H                     0.45180000           2.15681000           0.71470000         
H                    -1.53338000          -1.44092000          -1.68620000         
H                    -2.98469000          -1.11255000          -0.73020000         
H                    -1.67272000          -2.11539000          -0.06881000         
H                    -2.99138000           1.21508000          -0.58025000         
H                    -1.52594000           1.71733000          -1.43871000         
H                    -1.72489000           2.12687000           0.27307000         
25
Image 11 energy:-0.03895 
C                     2.61393000          -0.06355000          -0.67525000         
C                     1.09833000           0.01470000          -0.90623000         
C                     0.19121000          -0.00986000           0.37463000         
C                     0.47614000          -1.28614000           1.20090000         
C                     0.51902000           1.21201000           1.26056000         
C                    -1.25863000           0.02142000          -0.09386000         
C                    -1.87958000          -1.21610000          -0.67904000         
C                    -1.90641000           1.32917000          -0.45105000         
H                     3.15194000          -0.01040000          -1.62983000         
H                     2.89715000          -1.01603000          -0.19173000         
H                     2.98307000           0.76210000          -0.03694000         
H                     0.80102000          -0.82380000          -1.55604000         
H                     0.86784000           0.93286000          -1.46856000         
H                     1.47990000          -1.24735000           1.64541000         
H                     0.42265000          -2.19737000           0.58897000         
H                    -0.24973000          -1.38188000           2.02055000         
H                     1.52781000           1.12997000           1.68698000         
H                    -0.19090000           1.27240000           2.10210000         
H                     0.46933000           2.15719000           0.70192000         
H                    -1.52921000          -1.41860000          -1.71569000         
H                    -2.97447000          -1.11020000          -0.73876000         
H                    -1.66186000          -2.12777000          -0.08721000         
H                    -2.99314000           1.20781000          -0.57859000         
H                    -1.52149000           1.73660000          -1.41093000         
H                    -1.74175000           2.11476000           0.30334000         
25
Image 12 energy:-0.03896 
C                     2.62272000          -0.06249000          -0.67491000         
C                     1.10468000           0.00014000          -0.90960000         
C                     0.19812000          -0.01221000           0.36898000         
C                     0.47245000          -1.28383000           1.21102000         
C                     0.51433000           1.21708000           1.25817000         
C                    -1.26041000           0.01934000          -0.09124000         
C                    -1.88258000          -1.21067000          -0.69060000         
C                    -1.91289000           1.32835000          -0.43753000         
H                     3.15117000          -0.01738000          -1.64343000         
H                     2.92709000          -0.98869000          -0.17416000         
H                     2.97533000           0.78129000          -0.07591000         
H                     0.80506000          -0.84617000          -1.55111000         
H                     0.86962000           0.92145000          -1.47317000         
H                     1.48267000          -1.25641000           1.64093000         
H                     0.39715000          -2.20100000           0.60831000         
H                    -0.24519000          -1.35685000           2.04139000         
H                     1.51830000           1.13250000           1.69344000         
H                    -0.20017000           1.29996000           2.08722000         
H                     0.47944000           2.15305000           0.68431000         
H                    -1.55277000          -1.37695000          -1.74329000         
H                    -2.98174000          -1.11963000          -0.72061000         
H                    -1.63523000          -2.13109000          -0.14365000         
H                    -2.99862000           1.19755000          -0.58783000         
H                    -1.51306000           1.75895000          -1.38668000         
H                    -1.76949000           2.10049000           0.33604000         
25
Image 13 energy:-0.03903 
C                     2.62125000          -0.05186000          -0.67439000         
C                     1.10156000          -0.01149000          -0.90503000         
C                     0.19184000          -0.01574000           0.37229000         
C                     0.47081000          -1.28243000           1.21386000         
C                     0.52033000           1.21831000           1.24334000         
C                    -1.25868000           0.01761000          -0.09570000         
C                    -1.88125000          -1.20944000          -0.69892000         
C                    -1.91073000           1.33131000          -0.42535000         
H                     3.15755000          -0.02392000          -1.63247000         
H                     2.92844000          -0.97872000          -0.15846000         
H                     2.97474000           0.80440000          -0.06583000         
H                     0.82162000          -0.87661000          -1.52497000         
H                     0.85316000           0.88234000          -1.49817000         
H                     1.47581000          -1.24765000           1.65837000         
H                     0.40262000          -2.19901000           0.61667000         
H                    -0.25799000          -1.36074000           2.03587000         
H                     1.52571000           1.13368000           1.68291000         
H                    -0.19915000           1.30421000           2.07355000         
H                     0.48814000           2.15234000           0.66318000         
H                    -1.58646000          -1.34952000          -1.75852000         
H                    -2.98092000          -1.13381000          -0.69593000         
H                    -1.60982000          -2.13633000          -0.17168000         
H                    -2.98858000           1.20054000          -0.61489000         
H                    -1.48225000           1.79295000          -1.34380000         
H                    -1.79777000           2.08024000           0.37588000         
25
Image 14 energy:-0.03913 
C                     2.61625000          -0.04400000          -0.66525000         
C                     1.10181000          -0.02525000          -0.91220000         
C                     0.19733000          -0.01659000           0.36588000         
C                     0.46527000          -1.28355000           1.21848000         
C                     0.52442000           1.21795000           1.23698000         
C                    -1.25767000           0.01885000          -0.09856000         
C                    -1.88215000          -1.20854000          -0.70127000         
C                    -1.90901000           1.33458000          -0.41562000         
H                     3.15562000          -0.04306000          -1.62826000         
H                     2.92975000          -0.93409000          -0.10367000         
H                     2.94288000           0.83934000          -0.10798000         
H                     0.82380000          -0.89691000          -1.52850000         
H                     0.85204000           0.87014000          -1.50774000         
H                     1.45975000          -1.23537000           1.68234000         
H                     0.43185000          -2.20273000           0.61209000         
H                    -0.27728000          -1.37379000           2.02359000         
H                     1.53436000           1.13777000           1.65886000         
H                    -0.18229000           1.29950000           2.07652000         
H                     0.47784000           2.15063000           0.65610000         
H                    -1.60592000          -1.34313000          -1.77182000         
H                    -2.98226000          -1.14526000          -0.67464000         
H                    -1.58666000          -2.13385000          -0.18718000         
H                    -2.97622000           1.20029000          -0.64983000         
H                    -1.45116000           1.82938000          -1.29967000         
H                    -1.83446000           2.05923000           0.41107000         
25
Image 15 energy:-0.03916 
C                     2.62833000          -0.03931000          -0.66839000         
C                     1.10926000          -0.03269000          -0.90886000         