7
Image 1 energy:-0.07241 
C                    -0.76301000          -0.00023000          -0.07902000         
C                     0.70120000           0.00025000           0.08797000         
H                    -1.30366000           0.92438000          -0.23061000         
H                    -1.30362000          -0.92568000          -0.22555000         
H                     1.21186000          -0.00241000          -0.87734000         
H                     1.06574000          -0.88531000           0.61595000         
H                     1.06572000           0.88873000           0.61105000         
7
Image 2 energy:-0.07163 
C                    -0.75561000          -0.00024000          -0.08203000         
C                     0.69270000           0.00028000           0.09602000         
H                    -1.29158000           0.92642000          -0.23249000         
H                    -1.29154000          -0.92772000          -0.22741000         
H                     1.16907000          -0.00248000          -0.90292000         
H                     1.08155000          -0.89756000           0.60055000         
H                     1.08152000           0.90089000           0.59558000         
7
Image 3 energy:-0.06989 
C                    -0.74822000          -0.00024000          -0.08425000         
C                     0.68253000           0.00030000           0.10399000         
H                    -1.28160000           0.92717000          -0.23129000         
H                    -1.28156000          -0.92847000          -0.22622000         
H                     1.15404000          -0.00246000          -0.89338000         
H                     1.09568000          -0.90543000           0.56047000         
H                     1.09566000           0.90854000           0.55546000         
7
Image 4 energy:-0.06646 
C                    -0.74138000          -0.00025000          -0.08550000         
C                     0.67140000           0.00032000           0.11332000         
H                    -1.27500000           0.92671000          -0.22997000         
H                    -1.27496000          -0.92800000          -0.22490000         
H                     1.17067000          -0.00255000          -0.92418000         
H                     1.10627000          -0.91026000           0.52641000         
H                     1.10624000           0.91319000           0.52139000         
7
Image 5 energy:-0.05985 
C                    -0.73669000          -0.00025000          -0.08606000         
C                     0.66251000           0.00035000           0.12194000         
H                    -1.27133000           0.92615000          -0.22915000         
H                    -1.27129000          -0.92743000          -0.22408000         
H                     1.20077000          -0.00271000          -0.97944000         
H                     1.11254000          -0.91311000           0.50523000         
H                     1.11251000           0.91592000           0.50019000         
7
Image 6 energy:-0.05061 
C                    -0.73281000          -0.00025000          -0.08640000         
C                     0.65469000           0.00037000           0.13004000         
H                    -1.26873000           0.92563000          -0.22849000         
H                    -1.26869000          -0.92691000          -0.22342000         
H                     1.23379000          -0.00288000          -1.04028000         
H                     1.11691000          -0.91492000           0.48883000         
H                     1.11689000           0.91763000           0.48378000         
7
Image 7 energy:-0.04017 
C                    -0.72920000          -0.00025000          -0.08663000         
C                     0.64728000           0.00039000           0.13785000         
H                    -1.26661000           0.92516000          -0.22789000         
H                    -1.26657000          -0.92644000          -0.22283000         
H                     1.26779000          -0.00305000          -1.10302000         
H                     1.12037000          -0.91622000           0.47445000         
H                     1.12034000           0.91886000           0.46939000         
7
Image 8 energy:-0.02975 
C                    -0.72566000          -0.00025000          -0.08679000         
C                     0.64006000           0.00041000           0.14550000         
H                    -1.26477000           0.92473000          -0.22732000         
H                    -1.26473000          -0.92601000          -0.22226000         
H                     1.30222000          -0.00323000          -1.16661000         
H                     1.12328000          -0.91724000           0.46110000         
H                     1.12325000           0.91980000           0.45604000         
7
Image 9 energy:-0.02034 
C                    -0.72216000          -0.00025000          -0.08692000         
C                     0.63295000           0.00043000           0.15306000         
H                    -1.26314000           0.92434000          -0.22676000         
H                    -1.26309000          -0.92562000          -0.22170000         
H                     1.33686000          -0.00341000          -1.23068000         
H                     1.12580000          -0.91808000           0.44836000         
H                     1.12577000           0.92058000           0.44331000         
7
Image 10 energy:-0.01262 
C                    -0.71871000          -0.00025000          -0.08703000         
C                     0.62596000           0.00045000           0.16055000         
H                    -1.26165000           0.92399000          -0.22620000         
H                    -1.26160000          -0.92526000          -0.22115000         
H                     1.37168000          -0.00360000          -1.29514000         
H                     1.12801000          -0.91881000           0.43606000         
H                     1.12798000           0.92123000           0.43100000         
7
Image 11 energy:-0.00695 
C                    -0.71541000          -0.00025000          -0.08714000         
C                     0.61915000           0.00048000           0.16802000         
H                    -1.26027000           0.92366000          -0.22565000         
H                    -1.26022000          -0.92493000          -0.22060000         
H                     1.40670000          -0.00378000          -1.36001000         
H                     1.12995000          -0.91944000           0.42412000         
H                     1.12991000           0.92180000           0.41906000         
7
Image 12 energy:-0.00326 
C                    -0.71235000          -0.00025000          -0.08725000         
C                     0.61264000           0.00050000           0.17546000         
H                    -1.25900000           0.92336000          -0.22513000         
H                    -1.25895000          -0.92462000          -0.22008000         
H                     1.44205000          -0.00397000          -1.42546000         
H                     1.13158000          -0.91998000           0.41268000         
H                     1.13155000           0.92228000           0.40762000         
7
Image 13 energy:-0.00118 
C                    -0.70971000          -0.00025000          -0.08735000         
C                     0.60659000           0.00052000           0.18285000         
H                    -1.25787000           0.92306000          -0.22466000         
H                    -1.25781000          -0.92432000          -0.21963000         
H                     1.47792000          -0.00416000          -1.49168000         
H                     1.13284000          -0.92037000           0.40200000         
H                     1.13281000           0.92261000           0.39695000         
7
Image 14 energy:-0.00024 
C                    -0.70777000          -0.00025000          -0.08745000         
C                     0.60129000           0.00054000           0.19011000         
H                    -1.25696000           0.92282000          -0.22432000         
H                    -1.25690000          -0.92409000          -0.21930000         
H                     1.51459000          -0.00437000          -1.55913000         
H                     1.13356000          -0.92063000           0.39276000         
H                     1.13353000           0.92282000           0.38773000         
7
Image 15 energy:0.00000 
C                    -0.70647000          -0.00025000          -0.08748000         
C                     0.59669000           0.00056000           0.19709000         
H                    -1.25637000           0.92264000          -0.22420000         
H                    -1.25631000          -0.92392000          -0.21918000         
H                     1.55221000          -0.00456000          -1.62773000         
H                     1.13382000          -0.92083000           0.38548000         
H                     1.13379000           0.92298000           0.38046000         
7
Image 16 energy:-0.00015 
C                    -0.70517000          -0.00025000          -0.08750000         
C                     0.59209000           0.00058000           0.20408000         
H                    -1.25578000           0.92247000          -0.22407000         
H                    -1.25572000          -0.92374000          -0.21906000         
H                     1.58984000          -0.00476000          -1.69634000         
H                     1.13409000          -0.92103000           0.37819000         
H                     1.13405000           0.92314000           0.37319000         
7
Image 17 energy:-0.00050 
C                    -0.70456000          -0.00025000          -0.08740000         
C                     0.58824000           0.00060000           0.21064000         
H                    -1.25556000           0.92235000          -0.22421000         
H                    -1.25551000          -0.92361000          -0.21918000         
H                     1.62844000          -0.00495000          -1.76588000         
H                     1.13382000          -0.92112000           0.37339000         
H                     1.13377000           0.92321000           0.36837000         
7
Image 18 energy:-0.00093 
C                    -0.70468000          -0.00025000          -0.08709000         
C                     0.58520000           0.00061000           0.21659000         
H                    -1.25576000           0.92228000          -0.22455000         
H                    -1.25572000          -0.92354000          -0.21950000         
H                     1.66835000          -0.00513000          -1.83612000         
H                     1.13287000          -0.92113000           0.37167000         
H                     1.13283000           0.92321000           0.36661000         
7
Image 19 energy:-0.00138 
C                    -0.70505000          -0.00025000          -0.08660000         
C                     0.58245000           0.00063000           0.22205000         
H                    -1.25614000           0.92221000          -0.22495000         
H                    -1.25609000          -0.92348000          -0.21989000         
H                     1.70893000          -0.00532000          -1.90664000         
H                     1.13154000          -0.92116000           0.37189000         
H                     1.13150000           0.92325000           0.36683000         
7
Image 20 energy:-0.00181 
C                    -0.70570000          -0.00025000          -0.08595000         
C                     0.57997000           0.00064000           0.22707000         
H                    -1.25669000           0.92216000          -0.22533000         
H                    -1.25665000          -0.92343000          -0.22026000         
H                     1.75051000          -0.00552000          -1.97701000         
H                     1.12995000          -0.92117000           0.37366000         
H                     1.12991000           0.92326000           0.36859000         
7
Image 21 energy:-0.00221 
C                    -0.70647000          -0.00024000          -0.08519000         
C                     0.57765000           0.00065000           0.23180000         
H                    -1.25733000           0.92212000          -0.22570000         
H                    -1.25730000          -0.92339000          -0.22061000         
H                     1.79232000          -0.00571000          -2.04745000         
H                     1.12809000          -0.92121000           0.37659000         
H                     1.12806000           0.92332000           0.37151000         
7
Image 22 energy:-0.00257 
C                    -0.70740000          -0.00024000          -0.08433000         
C                     0.57546000           0.00067000           0.23625000         
H                    -1.25807000           0.92209000          -0.22598000         
H                    -1.25803000          -0.92336000          -0.22089000         
H                     1.83486000          -0.00591000          -2.11759000         
H                     1.12610000          -0.92122000           0.38033000         
H                     1.12606000           0.92336000           0.37524000         
7
Image 23 energy:-0.00289 
C                    -0.70840000          -0.00024000          -0.08340000         
C                     0.57335000           0.00068000           0.24054000         
H                    -1.25886000           0.92206000          -0.22625000         
H                    -1.25883000          -0.92333000          -0.22114000         
H                     1.87773000          -0.00610000          -2.18760000         
H                     1.12401000          -0.92125000           0.38453000         
H                     1.12398000           0.92341000           0.37943000         
7
Image 24 energy:-0.00318 
C                    -0.70947000          -0.00024000          -0.08239000         
C                     0.57130000           0.00069000           0.24467000         
H                    -1.25971000           0.92203000          -0.22642000         
H                    -1.25968000          -0.92331000          -0.22131000         
H                     1.92101000          -0.00629000          -2.25743000         
H                     1.12184000          -0.92127000           0.38904000         
H                     1.12182000           0.92345000           0.38393000         
7
Image 25 energy:-0.00344 
C                    -0.71061000          -0.00023000          -0.08132000         
C                     0.56927000           0.00070000           0.24867000         
H                    -1.26061000           0.92201000          -0.22650000         
H                    -1.26058000          -0.92329000          -0.22137000         
H                     1.96487000          -0.00648000          -2.32696000         
H                     1.11965000          -0.92128000           0.39368000         
H                     1.11963000           0.92349000           0.38855000         
7
Image 26 energy:-0.00366 
C                    -0.71179000          -0.00023000          -0.08019000         
C                     0.56728000           0.00071000           0.25257000         
H                    -1.26154000           0.92200000          -0.22653000         
H                    -1.26152000          -0.92327000          -0.22136000         
H                     2.00892000          -0.00667000          -2.39639000         
H                     1.11739000          -0.92130000           0.39848000         
H                     1.11738000           0.92353000           0.39331000         
7
Image 27 energy:-0.00386 
C                    -0.71303000          -0.00023000          -0.07900000         
C                     0.56528000           0.00072000           0.25639000         
H                    -1.26253000           0.92198000          -0.22639000         
H                    -1.26252000          -0.92326000          -0.22120000         
H                     2.05375000          -0.00687000          -2.46540000         
H                     1.11525000          -0.92130000           0.40297000         
H                     1.11524000           0.92356000           0.39778000         
7
Image 28 energy:-0.00404 
C                    -0.71431000          -0.00022000          -0.07776000         
C                     0.56334000           0.00073000           0.26012000         
H                    -1.26358000           0.92198000          -0.22619000         
H                    -1.26358000          -0.92325000          -0.22096000         
H                     2.09879000          -0.00705000          -2.53429000         
H                     1.11299000          -0.92130000           0.40771000         
H                     1.11300000           0.92358000           0.40247000         
7
Image 29 energy:-0.00420 
C                    -0.71559000          -0.00022000          -0.07651000         
C                     0.56137000           0.00074000           0.26382000         
H                    -1.26461000           0.92197000          -0.22594000         
H                    -1.26462000          -0.92324000          -0.22069000         
H                     2.14396000          -0.00725000          -2.60312000         
H                     1.11078000          -0.92131000           0.41237000         
H                     1.11078000           0.92362000           0.40712000         
7
Image 30 energy:-0.00433 
C                    -0.71694000          -0.00022000          -0.07518000         
C                     0.55942000           0.00075000           0.26743000         
H                    -1.26573000           0.92196000          -0.22554000         
H                    -1.26573000          -0.92324000          -0.22029000         
H                     2.18976000          -0.00744000          -2.67159000         
H                     1.10862000          -0.92130000           0.41680000         
H                     1.10862000           0.92364000           0.41156000         
7
Image 31 energy:-0.00446 
C                    -0.71828000          -0.00022000          -0.07383000         
C                     0.55748000           0.00076000           0.27100000         
H                    -1.26684000           0.92196000          -0.22512000         
H                    -1.26685000          -0.92324000          -0.21983000         
H                     2.23558000          -0.00763000          -2.74005000         
H                     1.10639000          -0.92129000           0.42133000         
H                     1.10641000           0.92366000           0.41603000         
7
Image 32 energy:-0.00457 
C                    -0.71963000          -0.00021000          -0.07248000         
C                     0.55553000           0.00078000           0.27456000         
H                    -1.26794000           0.92195000          -0.22470000         
H                    -1.26796000          -0.92323000          -0.21937000         
H                     2.28148000          -0.00783000          -2.80846000         
H                     1.10417000          -0.92130000           0.42588000         
H                     1.10418000           0.92369000           0.42055000         
7
Image 33 energy:-0.00466 
C                    -0.72102000          -0.00021000          -0.07109000         
C                     0.55358000           0.00079000           0.27808000         
H                    -1.26910000           0.92195000          -0.22417000         
H                    -1.26912000          -0.92323000          -0.21882000         
H                     2.32778000          -0.00802000          -2.87664000         
H                     1.10202000          -0.92129000           0.43022000         
H                     1.10203000           0.92372000           0.42488000         
7
Image 34 energy:-0.00475 
C                    -0.72242000          -0.00021000          -0.06963000         
C                     0.55166000           0.00080000           0.28150000         
H                    -1.27028000           0.92195000          -0.22357000         
H                    -1.27030000          -0.92323000          -0.21817000         
H                     2.37421000          -0.00821000          -2.94476000         
H                     1.09980000          -0.92128000           0.43462000         
H                     1.09983000           0.92374000           0.42921000         
7
Image 35 energy:-0.00482 
C                    -0.72381000          -0.00021000          -0.06821000         
C                     0.54972000           0.00081000           0.28497000         
H                    -1.27143000           0.92195000          -0.22302000         
H                    -1.27147000          -0.92324000          -0.21755000         
H                     2.42052000          -0.00841000          -3.01294000         
H                     1.09760000          -0.92128000           0.43901000         
H                     1.09764000           0.92377000           0.43354000         
7
Image 36 energy:-0.00489 
C                    -0.72521000          -0.00021000          -0.06677000         
C                     0.54777000           0.00083000           0.28841000         
H                    -1.27260000           0.92194000          -0.22241000         
H                    -1.27264000          -0.92324000          -0.21694000         
H                     2.46710000          -0.00861000          -3.08095000         
H                     1.09540000          -0.92126000           0.44337000         
H                     1.09543000           0.92380000           0.43790000         
7
Image 37 energy:-0.00494 
C                    -0.72663000          -0.00020000          -0.06530000         
C                     0.54583000           0.00084000           0.29181000         
H                    -1.27379000           0.92194000          -0.22178000         
H                    -1.27383000          -0.92325000          -0.21625000         
H                     2.51388000          -0.00881000          -3.14885000         
H                     1.09321000          -0.92125000           0.44768000         
H                     1.09325000           0.92383000           0.44215000         
7
Image 38 energy:-0.00499 
C                    -0.72804000          -0.00020000          -0.06382000         
C                     0.54388000           0.00085000           0.29521000         
H                    -1.27498000           0.92193000          -0.22115000         
H                    -1.27502000          -0.92325000          -0.21554000         
H                     2.56071000          -0.00901000          -3.21670000         
H                     1.09102000          -0.92124000           0.45196000         
H                     1.09106000           0.92385000           0.44635000         
7
Image 39 energy:-0.00503 
C                    -0.72947000          -0.00020000          -0.06232000         
C                     0.54194000           0.00087000           0.29858000         
H                    -1.27617000           0.92193000          -0.22049000         
H                    -1.27623000          -0.92326000          -0.21478000         
H                     2.60765000          -0.00923000          -3.28450000         
H                     1.08882000          -0.92122000           0.45622000         
H                     1.08888000           0.92388000           0.45052000         
7
Image 40 energy:-0.00507 
C                    -0.73090000          -0.00021000          -0.06082000         
C                     0.53999000           0.00089000           0.30194000         
H                    -1.27738000           0.92192000          -0.21980000         
H                    -1.27745000          -0.92327000          -0.21401000         
H                     2.65469000          -0.00945000          -3.35224000         
H                     1.08664000          -0.92121000           0.46043000         
H                     1.08671000           0.92391000           0.45464000         
7
Image 41 energy:-0.00510 
C                    -0.73235000          -0.00021000          -0.05927000         
C                     0.53805000           0.00090000           0.30524000         
H                    -1.27861000           0.92191000          -0.21906000         
H                    -1.27868000          -0.92328000          -0.21317000         
H                     2.70179000          -0.00965000          -3.41995000         
H                     1.08444000          -0.92118000           0.46465000         
H                     1.08451000           0.92394000           0.45877000         
7
Image 42 energy:-0.00513 
C                    -0.73379000          -0.00021000          -0.05774000         
C                     0.53610000           0.00092000           0.30858000         
H                    -1.27983000           0.92189000          -0.21833000         
H                    -1.27990000          -0.92330000          -0.21234000         
H                     2.74892000          -0.00988000          -3.48764000         
H                     1.08228000          -0.92116000           0.46879000         
H                     1.08235000           0.92398000           0.46280000         
7
Image 43 energy:-0.00515 
C                    -0.73524000          -0.00022000          -0.05617000         
C                     0.53416000           0.00095000           0.31186000         
H                    -1.28107000           0.92187000          -0.21756000         
H                    -1.28114000          -0.92332000          -0.21144000         
H                     2.79613000          -0.01012000          -3.55528000         
H                     1.08010000          -0.92112000           0.47294000         
H                     1.08017000           0.92402000           0.46683000         
