16
Image 1 energy:-0.00666 
C                    -1.92796292           0.09086138          -0.44072607         
C                    -0.87305276           0.18177304           0.67900365         
C                     0.50719265          -0.02522142           0.17073212         
C                     1.00737443          -1.39348557          -0.11244193         
C                     1.33168942           1.15116273          -0.20814457         
H                    -1.89470339          -0.88931896          -0.90967857         
H                    -1.11544118          -0.57523859           1.43166460         
H                    -0.95130320           1.16609161           1.14738256         
H                     2.02928583          -1.51985913           0.25390155         
H                     1.03562440          -1.59821597          -1.18996505         
H                     0.37470290          -2.14530574           0.35433638         
H                     0.74077554           1.88683916          -0.75932077         
H                     2.17962309           0.85360341          -0.82129719         
H                     1.72245965           1.66587632           0.67779124         
H                    -1.73492697           0.84347109          -1.20137493         
H                    -2.92522494           0.25139806          -0.03716649         
16
Image 2 energy:-0.00666 
C                     2.10231000          -0.08711000          -0.03103000         
C                     0.72238000          -0.66495000          -0.06435000         
C                    -0.44310000          -0.02296000          -0.09375000         
C                    -0.60398000           1.46996000          -0.09762000         
C                    -1.74113000          -0.78032000          -0.12419000         
H                     2.11234000           1.00160000          -0.03371000         
H                    -0.28351000          -0.06604000           5.71989000         
H                     0.68740000          -1.75189000          -0.06507000         
H                    -1.19896000           1.78902000           0.76341000         
H                    -1.14873000           1.78976000          -0.99064000         
H                     0.34134000           2.00747000          -0.07080000         
H                    -1.58222000          -1.85860000          -0.11938000         
H                    -2.31924000          -0.52256000          -1.01679000         
H                    -2.36287000          -0.52131000           0.73816000         
H                     2.68227000          -0.42771000          -0.89302000         
H                     2.63785000          -0.42316000           0.86093000         
16
Image 3 energy:-0.00666 
C                     2.10213000          -0.08511000          -0.03176000         
C                     0.72285000          -0.66446000          -0.06480000         
C                    -0.44301000          -0.02363000          -0.09421000         
C                    -0.60453000           1.46931000          -0.09994000         
C                    -1.74057000          -0.78171000          -0.12608000         
H                     2.11088000           1.00365000          -0.03458000         
H                    -0.28842000          -0.06459000           5.80804000         
H                     0.68883000          -1.75142000          -0.06471000         
H                    -1.20484000           1.78922000           0.75660000         
H                    -1.14464000           1.78804000          -0.99653000         
H                     0.34043000           2.00725000          -0.06768000         
H                    -1.58106000          -1.86003000          -0.12231000         
H                    -2.31876000          -0.52375000          -1.01855000         
H                    -2.36233000          -0.52344000           0.73642000         
H                     2.68209000          -0.42525000          -0.89397000         
H                     2.63869000          -0.42060000           0.86003000         
16
Image 4 energy:-0.00665 
C                     2.10251000          -0.08242000          -0.03027000         
C                     0.72374000          -0.66323000          -0.06460000         
C                    -0.44291000          -0.02411000          -0.09731000         
C                    -0.60682000           1.46854000          -0.10331000         
C                    -1.73937000          -0.78428000          -0.12704000         
H                     2.11040000           1.00639000          -0.03266000         
H                    -0.29080000          -0.06373000           5.88421000         
H                     0.69113000          -1.75023000          -0.06429000         
H                    -1.21129000           1.78756000           0.75064000         
H                    -1.14336000           1.78627000          -1.00239000         
H                     0.33737000           2.00783000          -0.06717000         
H                    -1.57788000          -1.86237000          -0.12430000         
H                    -2.31872000          -0.52657000          -1.01886000         
H                    -2.36106000          -0.52767000           0.73596000         
H                     2.68363000          -0.42162000          -0.89205000         
H                     2.63830000          -0.41791000           0.86191000         
16
Image 5 energy:-0.00666 
C                     2.10233000          -0.07967000          -0.02884000         
C                     0.72489000          -0.66282000          -0.06251000         
C                    -0.44292000          -0.02472000          -0.09325000         
C                    -0.60851000           1.46760000          -0.10412000         
C                    -1.73821000          -0.78633000          -0.12785000         
H                     2.10789000           1.00899000          -0.03331000         
H                    -0.29462000          -0.05907000           5.80804000         
H                     0.69378000          -1.74990000          -0.05925000         
H                    -1.21020000           1.78640000           0.75261000         
H                    -1.14804000           1.78354000          -1.00142000         
H                     0.33447000           2.00864000          -0.07153000         
H                    -1.57641000          -1.86404000          -0.12207000         
H                    -2.31624000          -0.53074000          -1.02103000         
H                    -2.36133000          -0.52898000           0.73407000         
H                     2.68418000          -0.41937000          -0.88998000         
H                     2.63886000          -0.41207000           0.86386000         
16
Image 6 energy:-0.00666 
C                     2.10239000          -0.07839000          -0.02613000         
C                     0.72486000          -0.66205000          -0.06069000         
C                    -0.44298000          -0.02517000          -0.09599000         
C                    -0.60879000           1.46716000          -0.10275000         
C                    -1.73807000          -0.78760000          -0.12569000         
H                     2.10796000           1.01025000          -0.03061000         
H                    -0.29264000          -0.05645000           5.72869000         
H                     0.69440000          -1.74911000          -0.05889000         
H                    -1.20650000           1.78763000           0.75465000         
H                    -1.15444000           1.78203000          -0.99792000         
H                     0.33500000           2.00779000          -0.07615000         
H                    -1.57469000          -1.86537000          -0.11921000         
H                    -2.31588000          -0.53366000          -1.01957000         
H                    -2.36193000          -0.52925000           0.73528000         
H                     2.68519000          -0.41803000          -0.88668000         
H                     2.63808000          -0.41118000           0.86713000         
16
Image 7 energy:-0.00666 
C                     2.10256000          -0.07852000          -0.02492000         
C                     0.72541000          -0.66231000          -0.06025000         
C                    -0.44274000          -0.02495000          -0.09112000         
C                    -0.61035000           1.46733000          -0.10343000         
C                    -1.73747000          -0.78759000          -0.12576000         
H                     2.10763000           1.01030000          -0.02932000         
H                    -0.29059000          -0.05645000           5.64927000         
H                     0.69478000          -1.74940000          -0.05683000         
H                    -1.20282000           1.78661000           0.76087000         
H                    -1.15845000           1.78130000          -0.99507000         
H                     0.33209000           2.00931000          -0.08159000         
H                    -1.57489000          -1.86528000          -0.11752000         
H                    -2.31474000          -0.53456000          -1.02017000         
H                    -2.36189000          -0.52880000           0.73467000         
H                     2.68573000          -0.41816000          -0.88512000         
H                     2.63784000          -0.41041000           0.86877000         
16
Image 8 energy:-0.00665 
C                     2.10202000          -0.07734000          -0.02314000         
C                     0.72489000          -0.66185000          -0.05791000         
C                    -0.44320000          -0.02547000          -0.09445000         
C                    -0.60847000           1.46671000          -0.10058000         
C                    -1.73809000          -0.78829000          -0.12382000         
H                     2.10693000           1.01114000          -0.02844000         
H                    -0.28753000          -0.05572000           5.57132000         
H                     0.69509000          -1.74893000          -0.05501000         
H                    -1.19732000           1.78897000           0.75995000         
H                    -1.16627000           1.78047000          -0.99055000         
H                     0.33595000           2.00755000          -0.08625000         
H                    -1.57455000          -1.86579000          -0.11480000         
H                    -2.31534000          -0.53597000          -1.01851000         
H                    -2.36247000          -0.52854000           0.73659000         
H                     2.68552000          -0.41727000          -0.88313000         
H                     2.63760000          -0.40905000           0.87047000         
16
Image 9 energy:-0.00664 
C                     2.10261000          -0.07832000          -0.02173000         
C                     0.72546000          -0.66222000          -0.05802000         
C                    -0.44275000          -0.02506000          -0.08970000         
C                    -0.61126000           1.46732000          -0.10230000         
C                    -1.73738000          -0.78764000          -0.12315000         
H                     2.10749000           1.01058000          -0.02589000         
H                    -0.28380000          -0.05741000           5.49396000         
H                     0.69490000          -1.74932000          -0.05538000         
H                    -1.19296000           1.78737000           0.77207000         
H                    -1.16561000           1.77942000          -0.98765000         
H                     0.33036000           2.00907000          -0.09015000         
H                    -1.57484000          -1.86563000          -0.11413000         
H                    -2.31378000          -0.53553000          -1.01835000         
H                    -2.36221000          -0.52714000           0.73611000         
H                     2.68674000          -0.41799000          -0.88131000         
H                     2.63690000          -0.41044000           0.87267000         
16
Image 10 energy:-0.00662 
C                     2.10170000          -0.07721000          -0.02052000         
C                     0.72476000          -0.66194000          -0.05599000         
C                    -0.44324000          -0.02530000          -0.09153000         
C                    -0.60797000           1.46682000          -0.09848000         
C                    -1.73813000          -0.78859000          -0.12224000         
H                     2.10672000           1.01137000          -0.02716000         
H                    -0.28201000          -0.05609000           5.41848000         
H                     0.69489000          -1.74899000          -0.05213000         
H                    -1.18884000           1.78896000           0.76476000         
H                    -1.17936000           1.78128000          -0.98292000         
H                     0.33726000           2.00865000          -0.09665000         
H                    -1.57397000          -1.86566000          -0.11039000         
H                    -2.31588000          -0.53922000          -1.01742000         
H                    -2.36301000          -0.52846000           0.73785000         
H                     2.68582000          -0.41800000          -0.87956000         
H                     2.63640000          -0.40726000           0.87402000         
16
Image 11 energy:-0.00663 
C                     2.10242000          -0.07778000          -0.01925000         
C                     0.72512000          -0.66182000          -0.05464000         
C                    -0.44321000          -0.02536000          -0.09018000         
C                    -0.61095000           1.46719000          -0.09967000         
C                    -1.73770000          -0.78819000          -0.12071000         
H                     2.10720000           1.01081000          -0.02535000         
H                    -0.27730000          -0.05736000           5.34121000         
H                     0.69498000          -1.74893000          -0.05110000         
H                    -1.18334000           1.79091000           0.77998000         
H                    -1.17052000           1.77887000          -0.98011000         
H                     0.33185000           2.00586000          -0.09458000         
H                    -1.57484000          -1.86616000          -0.11070000         
H                    -2.31333000          -0.53631000          -1.01660000         
H                    -2.36333000          -0.52678000           0.73795000         
H                     2.68650000          -0.41884000          -0.87838000         
H                     2.63710000          -0.40855000           0.87523000         
16
Image 12 energy:-0.00664 
C                     2.10219000          -0.07797000          -0.01766000         
C                     0.72535000          -0.66218000          -0.05503000         
C                    -0.44280000          -0.02502000          -0.08701000         
C                    -0.61009000           1.46675000          -0.09793000         
C                    -1.73764000          -0.78754000          -0.12013000         
H                     2.10706000           1.01104000          -0.02466000         
H                    -0.27450000          -0.05847000           5.26414000         
H                     0.69497000          -1.74926000          -0.05112000         
H                    -1.18384000           1.78636000           0.77279000         
H                    -1.18819000           1.77780000          -0.97728000         
H                     0.33225000           2.01233000          -0.10437000         
H                    -1.57517000          -1.86529000          -0.10690000         
H                    -2.31341000          -0.53851000          -1.01645000         
H                    -2.36298000          -0.52459000           0.73830000         
H                     2.68826000          -0.42009000          -0.87526000         
H                     2.63489000          -0.40772000           0.87887000         
16
Image 13 energy:-0.00665 
C                     2.10190000          -0.07710000          -0.01620000         
C                     0.72477000          -0.66177000          -0.05302000         
C                    -0.44337000          -0.02548000          -0.09049000         
C                    -0.60972000           1.46721000          -0.09643000         
C                    -1.73808000          -0.78891000          -0.11787000         
H                     2.10686000           1.01115000          -0.02767000         
H                    -0.27207000          -0.05755000           5.18654000         
H                     0.69497000          -1.74886000          -0.04936000         
H                    -1.17698000           1.79155000           0.78382000         
H                    -1.17993000           1.78103000          -0.97326000         
H                     0.33505000           2.00518000          -0.10012000         
H                    -1.57403000          -1.86611000          -0.10316000         
H                    -2.31480000          -0.54148000          -1.01443000         
H                    -2.36383000          -0.52562000           0.74051000         
H                     2.68903000          -0.42187000          -0.87129000         
H                     2.63318000          -0.40289000           0.88166000         
16
Image 14 energy:-0.00666 
C                     2.10208000          -0.07745000          -0.01587000         
C                     0.72526000          -0.66191000          -0.05198000         
C                    -0.44310000          -0.02525000          -0.08419000         
C                    -0.61045000           1.46667000          -0.09634000         
C                    -1.73758000          -0.78800000          -0.11809000         
H                     2.10686000           1.01157000          -0.02380000         
H                    -0.27057000          -0.05777000           5.10819000         
H                     0.69516000          -1.74898000          -0.04754000         
H                    -1.17935000           1.78840000           0.77831000         
H                    -1.18652000           1.77599000          -0.97313000         
H                     0.33128000           2.01055000          -0.10463000         
H                    -1.57501000          -1.86606000          -0.10446000         
H                    -2.31164000          -0.53921000          -1.01559000         
H                    -2.36444000          -0.52433000           0.73890000         
H                     2.68760000          -0.42043000          -0.87338000         
H                     2.63542000          -0.40634000           0.88059000         
16
Image 15 energy:-0.00665 
C                     2.10199000          -0.07697000          -0.01368000         
C                     0.72509000          -0.66182000          -0.05051000         
C                    -0.44317000          -0.02543000          -0.08772000         
C                    -0.61033000           1.46701000          -0.09464000         
C                    -1.73787000          -0.78890000          -0.11595000         
H                     2.10643000           1.01140000          -0.02724000         
H                    -0.26749000          -0.05763000           5.02943000         
H                     0.69535000          -1.74894000          -0.04583000         
H                    -1.17395000           1.79057000           0.78839000         
H                    -1.19029000           1.78016000          -0.96929000         
H                     0.33404000           2.00718000          -0.10541000         
H                    -1.57415000          -1.86590000          -0.09873000         
H                    -2.31362000          -0.54323000          -1.01355000         
H                    -2.36439000          -0.52397000           0.74133000         
H                     2.68967000          -0.42332000          -0.86809000         
H                     2.63312000          -0.40105000           0.88515000         
16
Image 16 energy:-0.00664 
C                     2.10193000          -0.07693000          -0.01342000         
C                     0.72514000          -0.66174000          -0.04977000         
C                    -0.44324000          -0.02542000          -0.08295000         
C                    -0.61083000           1.46665000          -0.09391000         
C                    -1.73758000          -0.78850000          -0.11513000         
H                     2.10675000           1.01202000          -0.02604000         
H                    -0.26519000          -0.05768000           4.94907000         
H                     0.69531000          -1.74880000          -0.04577000         
H                    -1.17864000           1.78952000           0.77923000         
H                    -1.18287000           1.77550000          -0.96964000         
H                     0.33111000           2.00951000          -0.10288000         
H                    -1.57428000          -1.86664000          -0.10047000         
H                    -2.31123000          -0.54082000          -1.01336000         
H                    -2.36517000          -0.52406000           0.74126000         
H                     2.68946000          -0.42344000          -0.86804000         
H                     2.63299000          -0.40175000           0.88574000         
16
Image 17 energy:-0.00663 
C                     2.10186000          -0.07667000          -0.01169000         
C                     0.72508000          -0.66157000          -0.04839000         
C                    -0.44341000          -0.02546000          -0.08385000         
C                    -0.60999000           1.46679000          -0.09313000         
C                    -1.73783000          -0.78904000          -0.11398000         
H                     2.10663000           1.01171000          -0.02777000         
H                    -0.26362000          -0.05843000           4.87147000         
H                     0.69538000          -1.74867000          -0.04287000         
H                    -1.17099000           1.79003000           0.79355000         
H                    -1.19660000           1.77910000          -0.96698000         
H                     0.33349000           2.00746000          -0.10593000         
H                    -1.57458000          -1.86617000          -0.09514000         
H                    -2.31257000          -0.54478000          -1.01231000         
H                    -2.36488000          -0.52264000           0.74202000         
H                     2.69005000          -0.42543000          -0.86462000         
H                     2.63250000          -0.39881000           0.88830000         
16
Image 18 energy:-0.00662 
C                     2.10216000          -0.07707000          -0.01122000         
C                     0.72528000          -0.66192000          -0.04700000         
C                    -0.44298000          -0.02539000          -0.08296000         
C                    -0.61186000           1.46686000          -0.09112000         
C                    -1.73760000          -0.78862000          -0.11213000         
H                     2.10636000           1.01169000          -0.02658000         
H                    -0.26087000          -0.05733000           4.79331000         
H                     0.69551000          -1.74903000          -0.04195000         
H                    -1.18099000           1.78951000           0.78107000         
H                    -1.18043000           1.77789000          -0.96704000         
H                     0.33192000           2.00962000          -0.10010000         
H                    -1.57392000          -1.86618000          -0.09582000         
H                    -2.31248000          -0.54208000          -1.01033000         
H                    -2.36484000          -0.52376000           0.74500000         
H                     2.69004000          -0.42501000          -0.86522000         
H                     2.63303000          -0.39955000           0.88870000         
16
Image 19 energy:-0.00662 
C                     2.10145000          -0.07615000          -0.01033000         
C                     0.72488000          -0.66141000          -0.04640000         
C                    -0.44371000          -0.02557000          -0.07929000         
C                    -0.60934000           1.46650000          -0.09171000         
C                    -1.73781000          -0.78911000          -0.11130000         
H                     2.10670000           1.01255000          -0.02754000         
H                    -0.26053000          -0.05934000           4.71435000         
H                     0.69535000          -1.74845000          -0.04184000         
H                    -1.17372000           1.78966000           0.79057000         
H                    -1.19250000           1.77661000          -0.96748000         
H                     0.33151000           2.00724000          -0.09852000         
H                    -1.57435000          -1.86702000          -0.09460000         
H                    -2.31066000          -0.54340000          -1.01013000         
H                    -2.36582000          -0.52320000           0.74365000         
H                     2.69008000          -0.42631000          -0.86238000         
H                     2.63143000          -0.39745000           0.89067000         
16
Image 20 energy:-0.00660 
C                     2.10239000          -0.07710000          -0.00931000         
C                     0.72530000          -0.66170000          -0.04438000         
C                    -0.44300000          -0.02536000          -0.08112000         
C                    -0.61227000           1.46684000          -0.08876000         
C                    -1.73763000          -0.78886000          -0.10967000         
H                     2.10657000           1.01122000          -0.02593000         
H                    -0.25920000          -0.05733000           4.63536000         
H                     0.69537000          -1.74881000          -0.03786000         
H                    -1.18272000           1.78955000           0.78576000         
H                    -1.18066000           1.77856000          -0.96639000         
H                     0.33486000           2.01037000          -0.09871000         
H                    -1.57413000          -1.86581000          -0.09112000         
H                    -2.31409000          -0.54445000          -1.00749000         
H                    -2.36398000          -0.52316000           0.74794000         
H                     2.68924000          -0.42551000          -0.86347000         
H                     2.63439000          -0.39856000           0.88981000         
16
Image 21 energy:-0.00658 
C                     2.10166000          -0.07633000          -0.00874000         
C                     0.72520000          -0.66177000          -0.04364000         
C                    -0.44333000          -0.02558000          -0.07786000         
C                    -0.61004000           1.46673000          -0.09001000         
C                    -1.73779000          -0.78899000          -0.10755000         
H                     2.10590000           1.01304000          -0.02251000         
H                    -0.25770000          -0.05830000           4.55718000         
H                     0.69598000          -1.74889000          -0.03863000         
H                    -1.18340000           1.78866000           0.78379000         
H                    -1.18383000           1.77956000          -0.96961000         
H                     0.32683000           2.00668000          -0.08371000         
H                    -1.57423000          -1.86679000          -0.09383000         
H                    -2.31148000          -0.54066000          -1.00563000         
H                    -2.36543000          -0.52522000           0.74886000         
H                     2.68900000          -0.42395000          -0.86378000         
H                     2.63335000          -0.40079000           0.89092000         
16
Image 22 energy:-0.00656 
C                     2.10190000          -0.07648000          -0.00782000         
C                     0.72505000          -0.66131000          -0.04350000         
C                    -0.44356000          -0.02545000          -0.07504000         
C                    -0.61153000           1.46625000          -0.08752000         
C                    -1.73757000          -0.78882000          -0.10698000         
H                     2.10729000           1.01122000          -0.02404000         
H                    -0.25818000          -0.05921000           4.47979000         
H                     0.69520000          -1.74836000          -0.03899000         
H                    -1.18546000           1.79139000           0.78609000         
H                    -1.17702000           1.77144000          -0.97037000         
H                     0.33804000           2.01076000          -0.09730000         
H                    -1.57405000          -1.86686000          -0.09214000         
H                    -2.31230000          -0.54148000          -1.00433000         