13
Image 1 energy:-0.07510 
C                    -0.00029000           1.45753000           0.27973000         
C                     0.00019000           0.01461000          -0.12275000         
C                    -1.29807000          -0.73338000          -0.10596000         
C                     1.29830000          -0.73377000          -0.10552000         
H                     0.88423000           1.99016000          -0.10426000         
H                    -0.89974000           1.98221000          -0.07944000         
H                     0.01516000           1.57984000           1.38365000         
H                    -1.20980000          -1.71945000          -0.58601000         
H                    -2.09711000          -0.17124000          -0.61815000         
H                    -1.66700000          -0.91339000           0.92651000         
H                     1.21225000          -1.71231000          -0.60144000         
H                     1.65766000          -0.93027000           0.92963000         
H                     2.10275000          -0.16488000          -0.60157000         
13
Image 2 energy:-0.07492 
C                    -0.00071000           1.45700000           0.28349000         
C                     0.00023000           0.01488000          -0.12367000         
C                    -1.29757000          -0.73237000          -0.10702000         
C                     1.29803000          -0.73464000          -0.10866000         
H                     0.88317000           1.99284000          -0.09712000         
H                    -0.90183000           1.98200000          -0.07288000         
H                     0.01421000           1.57419000           1.38820000         
H                    -1.20292000          -1.73440000          -0.56278000         
H                    -2.09029000          -0.18169000          -0.64703000         
H                    -1.67853000          -0.88684000           0.92279000         
H                     1.20744000          -1.72294000          -0.58251000         
H                     1.67543000          -0.90235000           0.93433000         
H                     2.09347000          -0.17867000          -0.61794000         
13
Image 3 energy:-0.07489 
C                    -0.00074000           1.45767000           0.28029000         
C                     0.00092000           0.01557000          -0.12623000         
C                    -1.29696000          -0.73471000          -0.10601000         
C                     1.29767000          -0.73308000          -0.10294000         
H                     0.88469000           1.99229000          -0.10133000         
H                    -0.90095000           1.98252000          -0.07485000         
H                     0.01670000           1.57449000           1.38531000         
H                    -1.21219000          -1.72060000          -0.58248000         
H                    -2.09315000          -0.17123000          -0.61754000         
H                    -1.67150000          -0.90659000           0.93590000         
H                     1.20967000          -1.71399000          -0.59886000         
H                     1.64748000          -0.93566000           0.91980000         
H                     2.10855000          -0.16614000          -0.61235000         
13
Image 4 energy:-0.07508 
C                     0.00044000           1.45914000           0.27776000         
C                    -0.00044000           0.01644000          -0.12954000         
C                    -1.29639000          -0.73402000          -0.10195000         
C                     1.29600000          -0.73554000          -0.10304000         
H                     0.88569000           1.99164000          -0.10402000         
H                    -0.89995000           1.98515000          -0.07880000         
H                     0.01413000           1.57804000           1.38293000         
H                    -1.20942000          -1.71337000          -0.60136000         
H                    -2.10728000          -0.16509000          -0.59813000         
H                    -1.64545000          -0.93918000           0.92750000         
H                     1.21964000          -1.70505000          -0.61763000         
H                     1.64048000          -0.94822000           0.93900000         
H                     2.10671000          -0.15563000          -0.57361000         
13
Image 5 energy:-0.07510 
C                     0.00051000           1.46171000           0.27434000         
C                    -0.00017000           0.01847000          -0.12788000         
C                    -1.29411000          -0.73763000          -0.10315000         
C                     1.29377000          -0.73539000          -0.10156000         
H                     0.88631000           1.99290000          -0.10869000         
H                    -0.89833000           1.98864000          -0.08300000         
H                     0.01786000           1.58327000           1.37869000         
H                    -1.21309000          -1.70367000          -0.62219000         
H                    -2.10907000          -0.16288000          -0.56424000         
H                    -1.63319000          -0.95491000           0.94250000         
H                     1.21674000          -1.69851000          -0.63753000         
H                     1.61781000          -0.97597000           0.93558000         
H                     2.11489000          -0.15405000          -0.54741000         
13
Image 6 energy:-0.07506 
C                    -0.00021000           1.46286000           0.27111000         
C                    -0.00025000           0.01918000          -0.13044000         
C                    -1.29302000          -0.73614000          -0.09856000         
C                     1.29269000          -0.73780000          -0.09767000         
H                     0.88690000           1.99422000          -0.11185000         
H                    -0.89975000           1.98805000          -0.08614000         
H                     0.01734000           1.58547000           1.37554000         
H                    -1.21868000          -1.69807000          -0.63940000         
H                    -2.12095000          -0.15307000          -0.55015000         
H                    -1.60432000          -0.98748000           0.92919000         
H                     1.22594000          -1.67947000          -0.65666000         
H                     1.59935000          -1.00313000           0.93393000         
H                     2.12362000          -0.14296000          -0.53301000         
13
Image 7 energy:-0.07516 
C                     0.00034000           1.46496000           0.26810000         
C                     0.00018000           0.01963000          -0.12993000         
C                    -1.29218000          -0.73910000          -0.09837000         
C                     1.29250000          -0.73772000          -0.09863000         
H                     0.88541000           1.99482000          -0.11678000         
H                    -0.90016000           1.98723000          -0.09484000         
H                     0.01175000           1.59378000           1.37230000         
H                    -1.22920000          -1.67876000          -0.66259000         
H                    -2.12047000          -0.14188000          -0.51330000         
H                    -1.59928000          -1.00622000           0.94349000         
H                     1.23185000          -1.67894000          -0.67593000         
H                     1.58546000          -1.02383000           0.93937000         
H                     2.12465000          -0.13856000          -0.49128000         
13
Image 8 energy:-0.07521 
C                    -0.00070000           1.46673000           0.26344000         
C                     0.00018000           0.02057000          -0.12697000         
C                    -1.29109000          -0.73792000          -0.09691000         
C                     1.29108000          -0.73976000          -0.09555000         
H                     0.88542000           1.99522000          -0.12432000         
H                    -0.89941000           1.98885000          -0.09963000         
H                     0.01580000           1.60005000           1.36659000         
H                    -1.22661000          -1.67469000          -0.68333000         
H                    -2.12861000          -0.13870000          -0.48513000         
H                    -1.57660000          -1.03885000           0.93246000         
H                     1.23454000          -1.65864000          -0.69893000         
H                     1.56822000          -1.05625000           0.93316000         
H                     2.13363000          -0.13155000          -0.47430000         
13
Image 9 energy:-0.07518 
C                     0.00067000           1.47004000           0.26007000         
C                    -0.00016000           0.02236000          -0.12720000         
C                    -1.28859000          -0.74255000          -0.09404000         
C                     1.28874000          -0.74057000          -0.09470000         
H                     0.88778000           1.99562000          -0.12667000         
H                    -0.89875000           1.99120000          -0.10688000         
H                     0.01140000           1.60773000           1.36298000         
H                    -1.23714000          -1.65081000          -0.70592000         
H                    -2.13595000          -0.13012000          -0.46733000         
H                    -1.55911000          -1.06579000           0.93693000         
H                     1.24087000          -1.64950000          -0.71925000         
H                     1.54804000          -1.08211000           0.93141000         
H                     2.13500000          -0.12686000          -0.43999000         
13
Image 10 energy:-0.07514 
C                    -0.00014000           1.47196000           0.25625000         
C                    -0.00012000           0.02252000          -0.12330000         
C                    -1.28879000          -0.74087000          -0.09533000         
C                     1.28842000          -0.74223000          -0.09300000         
H                     0.88677000           1.99587000          -0.13607000         
H                    -0.89812000           1.99004000          -0.11536000         
H                     0.01395000           1.61837000           1.35854000         
H                    -1.24077000          -1.65314000          -0.72661000         
H                    -2.13520000          -0.12952000          -0.42155000         
H                    -1.54164000          -1.09349000           0.92882000         
H                     1.24512000          -1.63425000          -0.73985000         
H                     1.53663000          -1.10801000           0.92978000         
H                     2.14091000          -0.12138000          -0.41823000         
13
Image 11 energy:-0.07517 
C                    -0.00005000           1.47384000           0.25146000         
C                     0.00004000           0.02291000          -0.11995000         
C                    -1.28742000          -0.74358000          -0.09107000         
C                     1.28768000          -0.74270000          -0.09229000         
H                     0.88765000           1.99524000          -0.14117000         
H                    -0.89699000           1.99158000          -0.12366000         
H                     0.01087000           1.62616000           1.35212000         
H                    -1.24545000          -1.62072000          -0.75044000         
H                    -2.14412000          -0.11846000          -0.41347000         
H                    -1.53120000          -1.12454000           0.92449000         
H                     1.25311000          -1.61990000          -0.76135000         
H                     1.51871000          -1.13723000           0.92005000         
H                     2.14445000          -0.11692000          -0.38927000         
13
Image 12 energy:-0.07516 
C                     0.00110000           1.47712000           0.24748000         
C                    -0.00053000           0.02359000          -0.11758000         
C                    -1.28674000          -0.74471000          -0.09149000         
C                     1.28612000          -0.74409000          -0.09036000         
H                     0.89017000           1.99441000          -0.14604000         
H                    -0.89640000           1.99248000          -0.13358000         
H                     0.00670000           1.63708000           1.34750000         
H                    -1.25551000          -1.61684000          -0.77324000         
H                    -2.14550000          -0.11653000          -0.36926000         
H                    -1.50925000          -1.15430000           0.92027000         
H                     1.25944000          -1.60287000          -0.78270000         
H                     1.50455000          -1.16479000           0.91674000         
H                     2.14636000          -0.11043000          -0.36112000         
13
Image 13 energy:-0.07507 
C                    -0.00192000           1.47947000           0.24265000         
C                     0.00001000           0.02381000          -0.11036000         
C                    -1.28540000          -0.74553000          -0.09067000         
C                     1.28570000          -0.74569000          -0.08991000         
H                     0.88954000           1.99355000          -0.15966000         
H                    -0.89519000           1.99272000          -0.13902000         
H                     0.02208000           1.65010000           1.34161000         
H                    -1.25878000          -1.58733000          -0.79765000         
H                    -2.14825000          -0.11211000          -0.34657000         
H                    -1.49815000          -1.18651000           0.90407000         
H                     1.26245000          -1.59671000          -0.79989000         
H                     1.49445000          -1.18789000           0.91235000         
H                     2.15108000          -0.10946000          -0.34018000         
13
Image 14 energy:-0.07490 
C                     0.00103000           1.48125000           0.23901000         
C                     0.00017000           0.02399000          -0.10777000         
C                    -1.28498000          -0.74653000          -0.08837000         
C                     1.28501000          -0.74649000          -0.08961000         
H                     0.88960000           1.99525000          -0.15613000         
H                    -0.89560000           1.99183000          -0.15332000         
H                    -0.00594000           1.65622000           1.33681000         
H                    -1.26308000          -1.59173000          -0.80938000         
H                    -2.15359000          -0.10370000          -0.33415000         
H                    -1.48826000          -1.20026000           0.91400000         
H                     1.27215000          -1.56314000          -0.82095000         
H                     1.47882000          -1.21914000           0.88925000         
H                     2.15134000          -0.11083000          -0.30953000         
13
Image 15 energy:-0.07495 
C                     0.00243000           1.48347000           0.23557000         
C                    -0.00055000           0.02434000          -0.10512000         
C                    -1.28467000          -0.74797000          -0.08878000         
C                     1.28405000          -0.74719000          -0.08745000         
H                     0.88951000           1.99527000          -0.16117000         
H                    -0.89689000           1.99232000          -0.15881000         
H                    -0.00773000           1.66234000           1.33184000         
H                    -1.27927000          -1.55887000          -0.83406000         
H                    -2.15350000          -0.10738000          -0.29050000         
H                    -1.46767000          -1.23624000           0.88963000         
H                     1.27135000          -1.57112000          -0.82834000         
H                     1.47412000          -1.22623000           0.90273000         
H                     2.15505000          -0.10068000          -0.30628000         
13
Image 16 energy:-0.07491 
C                    -0.00223000           1.48583000           0.23173000         
C                     0.00007000           0.02432000          -0.10136000         
C                    -1.28375000          -0.74832000          -0.08769000         
C                     1.28401000          -0.74846000          -0.08711000         
H                     0.89300000           1.99291000          -0.17646000         
H                    -0.89370000           1.99386000          -0.15846000         
H                     0.02269000           1.67367000           1.32736000         
H                    -1.27796000          -1.55324000          -0.84914000         
H                    -2.15595000          -0.10187000          -0.27591000         
H                    -1.46100000          -1.25439000           0.88938000         
H                     1.28500000          -1.54913000          -0.84974000         
H                     1.45524000          -1.25739000           0.88648000         
H                     2.15529000          -0.10364000          -0.26448000         
13
Image 17 energy:-0.07485 
C                     0.00042000           1.48755000           0.22666000         
C                    -0.00005000           0.02427000          -0.09615000         
C                    -1.28266000          -0.74935000          -0.08550000         
C                     1.28284000          -0.74962000          -0.08603000         
H                     0.89049000           1.99395000          -0.16710000         
H                    -0.89440000           1.99377000          -0.18222000         
H                    -0.00315000           1.68609000           1.32342000         
H                    -1.28653000          -1.52811000          -0.86804000         
H                    -2.15906000          -0.10166000          -0.24778000         
H                    -1.44530000          -1.28341000           0.87435000         
H                     1.28524000          -1.52910000          -0.86806000         
H                     1.44651000          -1.28268000           0.87452000         
H                     2.15962000          -0.10181000          -0.25071000         
13
Image 18 energy:-0.07434 
C                     0.00166000           1.48927000           0.22421000         
C                     0.00021000           0.02518000          -0.09556000         
C                    -1.28251000          -0.75036000          -0.08456000         
C                     1.28248000          -0.75012000          -0.08508000         
H                     0.89874000           1.99106000          -0.20489000         
H                    -0.88794000           1.99764000          -0.15434000         
H                    -0.03279000           1.68177000           1.31841000         
H                    -1.29521000          -1.51721000          -0.88039000         
H                    -2.16071000          -0.10012000          -0.22656000         
H                    -1.43376000          -1.30060000           0.86894000         
H                     1.29783000          -1.52104000          -0.87870000         
H                     1.43148000          -1.29790000           0.87138000         
H                     2.16049000          -0.09985000          -0.22572000         
13
Image 19 energy:-0.07470 
C                    -0.00059000           1.49115000           0.22169000         
C                    -0.00006000           0.02589000          -0.09516000         
C                    -1.28240000          -0.75106000          -0.08394000         
C                     1.28244000          -0.75105000          -0.08370000         
H                     0.89286000           1.99470000          -0.17786000         
H                    -0.89591000           1.99275000          -0.18959000         
H                     0.01025000           1.68454000           1.31181000         
H                    -1.30656000          -1.50913000          -0.89271000         
H                    -2.16185000          -0.09872000          -0.20002000         
H                    -1.41911000          -1.31722000           0.86577000         
H                     1.30606000          -1.50787000          -0.89317000         
H                     1.41968000          -1.31803000           0.86509000         
H                     2.16186000          -0.09868000          -0.19988000         
13
Image 20 energy:-0.07460 
C                     0.00006000           1.48919000           0.21674000         
C                     0.00001000           0.02426000          -0.09702000         
C                    -1.28195000          -0.75012000          -0.08066000         
C                     1.28197000          -0.75007000          -0.08071000         
H                     0.89173000           1.99151000          -0.18401000         
H                    -0.89133000           1.99177000          -0.18188000         
H                    -0.00148000           1.70750000           1.31598000         
H                    -1.31342000          -1.48419000          -0.90735000         
H                    -2.16469000          -0.09880000          -0.17108000         
H                    -1.40526000          -1.34141000           0.85133000         
H                     1.31354000          -1.48435000          -0.90727000         
H                     1.40525000          -1.34119000           0.85143000         
H                     2.16467000          -0.09872000          -0.17115000         
13
Image 21 energy:-0.07453 
C                    -0.00004000           1.48936000           0.21487000         
C                    -0.00000000           0.02618000          -0.09656000         
C                    -1.28312000          -0.75025000          -0.07908000         
C                     1.28315000          -0.75021000          -0.07910000         
H                     0.89232000           1.99347000          -0.20112000         
H                    -0.89249000           1.99338000          -0.20153000         
H                     0.00035000           1.67715000           1.30539000         
H                    -1.33429000          -1.46788000          -0.91928000         
H                    -2.16624000          -0.09457000          -0.13900000         
H                    -1.38699000          -1.35943000           0.84436000         
H                     1.33428000          -1.46783000          -0.91930000         
H                     1.38709000          -1.35938000           0.84433000         
H                     2.16624000          -0.09450000          -0.13909000         
13
Image 22 energy:-0.07445 
C                    -0.00002000           1.48623000           0.21337000         
C                    -0.00000000           0.02368000          -0.10877000         
C                    -1.28492000          -0.74842000          -0.07544000         
C                     1.28494000          -0.74837000          -0.07547000         
H                     0.88995000           1.99007000          -0.18753000         
H                    -0.89001000           1.99005000          -0.18745000         
H                    -0.00006000           1.69191000           1.30448000         
H                    -1.36035000          -1.45698000          -0.92446000         
H                    -2.16614000          -0.08707000          -0.10774000         
H                    -1.37126000          -1.37020000           0.84324000         
H                     1.36037000          -1.45697000          -0.92447000         
H                     1.37133000          -1.37012000           0.84323000         
H                     2.16614000          -0.08700000          -0.10782000         
13
Image 23 energy:-0.07429 
C                    -0.00002000           1.48024000           0.20932000         
C                    -0.00000000           0.02241000          -0.11057000         
C                    -1.28647000          -0.74526000          -0.07274000         
C                     1.28649000          -0.74521000          -0.07277000         
H                     0.89140000           1.98781000          -0.20093000         
H                    -0.89147000           1.98778000          -0.20092000         
H                    -0.00001000           1.67245000           1.31022000         
H                    -1.38323000          -1.43323000          -0.93359000         
H                    -2.16230000          -0.07903000          -0.07494000         
H                    -1.36020000          -1.38435000           0.83282000         
H                     1.38325000          -1.43320000          -0.93361000         
H                     1.36027000          -1.38429000           0.83280000         
H                     2.16230000          -0.07896000          -0.07500000         
13
Image 24 energy:-0.07389 
C                    -0.00002000           1.47041000           0.20044000         
C                    -0.00000000           0.02102000          -0.11357000         
C                    -1.28382000          -0.73952000          -0.06906000         
C                     1.28384000          -0.73948000          -0.06909000         
H                     0.89554000           1.99116000          -0.17409000         
H                    -0.89561000           1.99113000          -0.17407000         
H                    -0.00001000           1.63415000           1.29516000         
H                    -1.38656000          -1.41859000          -0.93647000         
H                    -2.15903000          -0.07381000          -0.05977000         
H                    -1.35334000          -1.38984000           0.82807000         
H                     1.38658000          -1.41855000          -0.93649000         
H                     1.35341000          -1.38978000           0.82805000         
H                     2.15903000          -0.07374000          -0.05983000         
13
Image 25 energy:-0.07260 
C                    -0.00002000           1.46044000           0.18836000         
C                    -0.00000000           0.02301000          -0.10951000         
C                    -1.28133000          -0.73491000          -0.06728000         
C                     1.28135000          -0.73487000          -0.06731000         
H                     0.90757000           1.99944000          -0.15128000         
H                    -0.90764000           1.99941000          -0.15126000         
H                    -0.00001000           1.58668000           1.30594000         
H                    -1.37665000          -1.40895000          -0.93946000         
H                    -2.16028000          -0.07443000          -0.05581000         
H                    -1.34690000          -1.39087000           0.82548000         
H                     1.37667000          -1.40892000          -0.93948000         
H                     1.34697000          -1.39081000           0.82546000         
H                     2.16028000          -0.07436000          -0.05587000         
13
Image 26 energy:-0.07038 
C                    -0.00002000           1.45380000           0.17624000         
C                    -0.00000000           0.02686000          -0.10342000         
C                    -1.28023000          -0.73224000          -0.06660000         
C                     1.28026000          -0.73220000          -0.06663000         
H                     0.91352000           2.00102000          -0.11437000         
H                    -0.91359000           2.00099000          -0.11435000         
H                    -0.00001000           1.54148000           1.28930000         
H                    -1.36887000          -1.40323000          -0.94158000         
H                    -2.16185000          -0.07534000          -0.05401000         
H                    -1.34101000          -1.38979000           0.82498000         
H                     1.36889000          -1.40320000          -0.94160000         
H                     1.34108000          -1.38973000           0.82496000         
H                     2.16185000          -0.07527000          -0.05407000         
13
Image 27 energy:-0.06644 
C                    -0.00002000           1.44713000           0.16149000         
C                    -0.00000000           0.03160000          -0.09827000         
C                    -1.27980000          -0.73069000          -0.06633000         
C                     1.27982000          -0.73065000          -0.06635000         
H                     0.91762000           2.00108000          -0.08254000         
H                    -0.91769000           2.00105000          -0.08252000         
H                    -0.00001000           1.51830000           1.33419000         
H                    -1.36373000          -1.39934000          -0.94301000         
H                    -2.16283000          -0.07590000          -0.05267000         