16
Image 1 energy:-0.04701 
C                     1.14160000          -1.28886000          -0.26710000         
C                     0.55128000           0.00186000           0.21370000         
C                     1.14767000           1.28955000          -0.26757000         
C                    -0.84276000          -0.00101000           0.76942000         
C                    -1.93348000          -0.00080000          -0.32726000         
H                     0.85880000          -2.13679000           0.38529000         
H                     2.23683000          -1.24392000          -0.29821000         
H                     0.84175000           1.53186000          -1.30237000         
H                     2.24867000           1.24618000          -0.27807000         
H                     0.84430000           2.14277000           0.35710000         
H                    -0.99291000           0.88677000           1.41214000         
H                    -0.99098000          -0.88616000           1.40845000         
H                    -1.85724000           0.90352000          -0.95304000         
H                    -2.95037000          -0.03393000           0.10628000         
H                    -1.81922000          -0.87164000          -0.99078000         
H                     0.81458000          -1.54737000          -1.28967000         
16
Image 2 energy:-0.04690 
C                     1.15298000          -1.28993000          -0.27140000         
C                     0.55651000          -0.00419000           0.21843000         
C                     1.14085000           1.28912000          -0.26605000         
C                    -0.84115000           0.00158000           0.77048000         
C                    -1.94048000           0.00112000          -0.32896000         
H                     0.82252000          -2.14541000           0.33840000         
H                     2.25986000          -1.25815000          -0.26111000         
H                     0.83539000           1.52875000          -1.31586000         
H                     2.24614000           1.26708000          -0.25993000         
H                     0.80860000           2.13824000           0.35930000         
H                    -0.98734000           0.89072000           1.40484000         
H                    -1.00040000          -0.88244000           1.41723000         
H                    -1.81610000           0.85054000          -1.00898000         
H                    -2.93624000           0.07625000           0.12079000         
H                    -1.90549000          -0.91814000          -0.92618000         
H                     0.85492000          -1.52009000          -1.32705000         
16
Image 3 energy:-0.04619 
C                     1.14432000          -1.28726000          -0.27268000         
C                     0.55247000          -0.00278000           0.22107000         
C                     1.13270000           1.29108000          -0.26676000         
C                    -0.84155000          -0.00753000           0.77715000         
C                    -1.92330000           0.00171000          -0.33360000         
H                     0.85068000          -2.14624000           0.36308000         
H                     2.24809000          -1.23360000          -0.28408000         
H                     0.78435000           1.54896000          -1.29127000         
H                     2.23273000           1.25351000          -0.31897000         
H                     0.84371000           2.13256000           0.37640000         
H                    -0.97010000           0.88918000           1.43713000         
H                    -1.01896000          -0.88449000           1.39736000         
H                    -1.73529000           0.82838000          -1.05462000         
H                    -2.93999000           0.14776000           0.09376000         
H                    -1.89608000          -0.94800000          -0.89648000         
H                     0.83128000          -1.53105000          -1.31279000         
16
Image 4 energy:-0.04585 
C                     1.13948000          -1.28917000          -0.26707000         
C                     0.55447000          -0.00060000           0.22358000         
C                     1.13185000           1.29280000          -0.26927000         
C                    -0.84087000          -0.00746000           0.77599000         
C                    -1.91874000           0.00376000          -0.33721000         
H                     0.86753000          -2.13715000           0.38491000         
H                     2.24021000          -1.24305000          -0.32930000         
H                     0.76884000           1.56655000          -1.27946000         
H                     2.23302000           1.23445000          -0.34906000         
H                     0.87791000           2.13526000           0.40072000         
H                    -1.02926000           0.87317000           1.37970000         
H                    -0.96259000          -0.90007000           1.44939000         
H                    -1.73965000           0.86356000          -0.99624000         
H                    -2.94008000           0.07404000           0.08545000         
H                    -1.88980000          -0.91673000          -0.96174000         
H                     0.78590000          -1.54219000          -1.28495000         
16
Image 5 energy:-0.04682 
C                     1.13122000          -1.29223000          -0.26771000         
C                     0.56118000           0.00304000           0.23026000         
C                     1.14018000           1.29359000          -0.26654000         
C                    -0.84040000           0.00311000           0.77409000         
C                    -1.91967000          -0.00485000          -0.34237000         
H                     0.87843000          -2.12810000           0.40776000         
H                     2.23002000          -1.24816000          -0.36945000         
H                     0.74228000           1.57295000          -1.27171000         
H                     2.23429000           1.23988000          -0.36408000         
H                     0.89199000           2.13103000           0.40744000         
H                    -0.99416000           0.88577000           1.42832000         
H                    -1.00372000          -0.88778000           1.39689000         
H                    -1.83658000           0.88294000          -0.98158000         
H                    -2.92917000          -0.01896000           0.08055000         
H                    -1.80842000          -0.88698000          -0.98050000         
H                     0.73163000          -1.57424000          -1.27449000         
16
Image 6 energy:-0.04669 
C                     1.12458000          -1.29549000          -0.26196000         
C                     0.55984000           0.00162000           0.23254000         
C                     1.13266000           1.29191000          -0.27095000         
C                    -0.83941000           0.00018000           0.77822000         
C                    -1.90703000           0.00214000          -0.34802000         
H                     0.91739000          -2.12461000           0.43308000         
H                     2.21169000          -1.23353000          -0.41060000         
H                     0.72076000           1.57789000          -1.25981000         
H                     2.22607000           1.23202000          -0.40315000         
H                     0.91356000           2.13126000           0.40872000         
H                    -1.00656000           0.88783000           1.41091000         
H                    -0.99517000          -0.88593000           1.41835000         
H                    -1.87791000           0.94995000          -0.91427000         
H                    -2.92412000          -0.11756000           0.06440000         
H                    -1.72502000          -0.82568000          -1.05584000         
H                     0.69817000          -1.59579000          -1.23768000         
16
Image 7 energy:-0.04349 
C                     1.11984000          -1.29587000          -0.26436000         
C                     0.56468000           0.00241000           0.23862000         
C                     1.13199000           1.29430000          -0.26626000         
C                    -0.83995000           0.00467000           0.77542000         
C                    -1.90305000          -0.00530000          -0.35218000         
H                     0.96592000          -2.12210000           0.49615000         
H                     2.22388000          -1.20784000          -0.49891000         
H                     0.71933000           1.58354000          -1.22896000         
H                     2.20085000           1.24353000          -0.40392000         
H                     0.92601000           2.12120000           0.40607000         
H                    -1.00582000           0.89476000           1.40839000         
H                    -1.00177000          -0.87924000           1.41784000         
H                    -1.81496000           0.93415000          -0.90577000         
H                    -2.92102000          -0.09974000           0.05255000         
H                    -1.76858000          -0.83772000          -1.07847000         
H                     0.60094000          -1.63308000          -1.22773000         
16
Image 8 energy:-0.04596 
C                     1.12107000          -1.29415000          -0.26707000         
C                     0.56617000           0.00250000           0.24194000         
C                     1.13172000           1.29325000          -0.26774000         
C                    -0.84102000           0.00725000           0.77657000         
C                    -1.90286000          -0.00740000          -0.35111000         
H                     0.91412000          -2.12216000           0.43106000         
H                     2.20100000          -1.24473000          -0.42144000         
H                     0.64354000           1.61061000          -1.24201000         
H                     2.22577000           1.21964000          -0.45961000         
H                     0.95158000           2.12355000           0.45920000         
H                    -1.00214000           0.89659000           1.41731000         
H                    -1.00627000          -0.87707000           1.41521000         
H                    -1.81373000           0.90551000          -0.95104000         
H                    -2.92393000          -0.07347000           0.04682000         
H                    -1.75533000          -0.86432000          -1.03504000         
H                     0.67148000          -1.59154000          -1.23928000         
16
Image 9 energy:-0.04559 
C                     1.12509000          -1.29157000          -0.26900000         
C                     0.55761000           0.00047000           0.23666000         
C                     1.12986000           1.29145000          -0.26933000         
C                    -0.83948000          -0.00345000           0.78563000         
C                    -1.90136000           0.00523000          -0.34984000         
H                     0.90281000          -2.12773000           0.42160000         
H                     2.22179000          -1.23825000          -0.41936000         
H                     0.71294000           1.57589000          -1.26007000         
H                     2.21978000           1.23555000          -0.39696000         
H                     0.90545000           2.12982000           0.40714000         
H                    -1.01757000           0.88343000           1.40332000         
H                    -0.98917000          -0.88913000           1.43781000         
H                    -1.84722000           0.89836000          -1.01098000         
H                    -2.92901000          -0.03502000           0.04525000         
H                    -1.71412000          -0.87891000          -0.96458000         
H                     0.68041000          -1.57926000          -1.26018000         
16
Image 10 energy:-0.04685 
C                     1.12931000          -1.29000000          -0.27027000         
C                     0.55051000           0.00179000           0.22478000         
C                     1.13628000           1.29083000          -0.26813000         
C                    -0.84034000           0.00448000           0.78492000         
C                    -1.91011000          -0.00677000          -0.34260000         
H                     0.86857000          -2.13306000           0.38774000         
H                     2.22948000          -1.24011000          -0.35384000         
H                     0.76615000           1.56025000          -1.27923000         
H                     2.23744000           1.23451000          -0.35425000         
H                     0.88120000           2.13588000           0.39241000         
H                    -0.99408000           0.89247000           1.42307000         
H                    -1.00248000          -0.88150000           1.41731000         
H                    -1.79738000           0.89230000          -0.96119000         
H                    -2.93156000          -0.01825000           0.07017000         
H                    -1.80072000          -0.88947000          -0.99323000         
H                     0.76159000          -1.55694000          -1.28147000         
16
Image 11 energy:-0.04670 
C                     1.14487000          -1.28903000          -0.26710000         
C                     0.55742000          -0.00005000           0.22003000         
C                     1.14470000           1.28902000          -0.26740000         
C                    -0.84960000          -0.00053000           0.76356000         
C                    -1.93256000           0.00062000          -0.32638000         
H                     0.86430000          -2.13444000           0.39058000         
H                     2.24566000          -1.23752000          -0.31986000         
H                     0.79098000           1.55689000          -1.29435000         
H                     2.24540000           1.23723000          -0.31980000         
H                     0.86435000           2.13458000           0.39028000         
H                    -0.99678000           0.88774000           1.41518000         
H                    -0.99416000          -0.88899000           1.41814000         
H                    -1.82476000           0.88517000          -0.97396000         
H                    -2.94012000          -0.00105000           0.09783000         
H                    -1.81735000          -0.88304000          -0.97097000         
H                     0.79068000          -1.55691000          -1.29406000         
16
Image 12 energy:-0.04631 
C                     1.14942000          -1.28540000          -0.26940000         
C                     0.54786000           0.00007000           0.21260000         
C                     1.14963000           1.28540000          -0.26935000         
C                    -0.83309000           0.00036000           0.78922000         
C                    -1.94373000          -0.00045000          -0.33308000         
H                     0.83419000          -2.14254000           0.34882000         
H                     2.25200000          -1.24641000          -0.26872000         
H                     0.84656000           1.51679000          -1.31644000         
H                     2.25232000           1.24641000          -0.26883000         
H                     0.83440000           2.14262000           0.34887000         
H                    -1.00240000           0.88491000           1.40835000         
H                    -1.00358000          -0.88407000           1.40723000         
H                    -1.86018000           0.88471000          -0.98519000         
H                    -2.97172000          -0.00145000           0.08478000         
H                    -1.86273000          -0.88379000          -0.99009000         
H                     0.84656000          -1.51688000          -1.31641000         
16
Image 13 energy:-0.04671 
C                     1.15948000          -1.28562000          -0.26680000         
C                     0.54713000          -0.00001000           0.20161000         
C                     1.15943000           1.28563000          -0.26680000         
C                    -0.85192000          -0.00010000           0.76341000         
C                    -1.95742000           0.00011000          -0.31783000         
H                     0.81268000          -2.14676000           0.32862000         
H                     2.26944000          -1.25392000          -0.22175000         
H                     0.90456000           1.50536000          -1.33062000         
H                     2.26934000           1.25403000          -0.22154000         
H                     0.81246000           2.14676000           0.32845000         
H                    -0.98229000           0.88955000           1.42334000         
H                    -0.98205000          -0.88970000           1.42361000         
H                    -1.86506000           0.89324000          -0.94852000         
H                    -2.95503000          -0.00028000           0.14430000         
H                    -1.86344000          -0.89295000          -0.94782000         
H                     0.90438000          -1.50546000          -1.33058000         
16
Image 14 energy:-0.04613 
C                     1.16094000          -1.28889000          -0.26471000         
C                     0.53816000           0.00001000           0.18047000         
C                     1.16094000           1.28891000          -0.26467000         
C                    -0.84654000           0.00004000           0.76030000         
C                    -1.95547000          -0.00007000          -0.29909000         
H                     0.77900000          -2.15122000           0.31645000         
H                     2.26654000          -1.25897000          -0.15537000         
H                     0.96337000           1.51249000          -1.34236000         
H                     2.26654000           1.25900000          -0.15523000         
H                     0.77895000           2.15124000           0.31649000         
H                    -1.00519000           0.88427000           1.37574000         
H                    -1.00513000          -0.88422000           1.37586000         
H                    -1.87593000           0.89085000          -0.94791000         
H                    -2.94588000          -0.00011000           0.17003000         
H                    -1.87648000          -0.89092000          -0.94840000         
H                     0.96328000          -1.51245000          -1.34238000         
16
Image 15 energy:-0.04644 
C                     1.16087000          -1.28936000          -0.26635000         
C                     0.53785000           0.00000000           0.17268000         
C                     1.16085000           1.28939000          -0.26631000         
C                    -0.83346000          -0.00001000           0.77482000         
C                    -1.97106000          -0.00001000          -0.30997000         
H                     0.73433000          -2.15303000           0.28044000         
H                     2.25522000          -1.28065000          -0.09933000         
H                     1.01333000           1.49122000          -1.35437000         
H                     2.25519000           1.28074000          -0.09919000         
H                     0.73420000           2.15305000           0.28044000         
H                    -0.95205000           0.88641000           1.43598000         
H                    -0.95216000          -0.88643000           1.43585000         
H                    -1.89055000           0.88426000          -0.95959000         
H                    -2.97586000           0.00010000           0.14463000         
H                    -1.89039000          -0.88449000          -0.95913000         
H                     1.01327000          -1.49122000          -1.35440000         
16
Image 16 energy:-0.04659 
C                     1.16888000          -1.28659000          -0.26445000         
C                     0.54311000          -0.00000000           0.17472000         
C                     1.16884000           1.28662000          -0.26443000         
C                    -0.84173000          -0.00004000           0.75548000         
C                    -1.97849000          -0.00000000          -0.29359000         
H                     0.69953000          -2.15487000           0.22581000         
H                     2.25615000          -1.32272000          -0.07015000         
H                     1.05593000           1.43782000          -1.35933000         
H                     2.25608000           1.32285000          -0.06998000         
H                     0.69935000           2.15489000           0.22573000         
H                    -0.97231000           0.88525000           1.39868000         
H                    -0.97227000          -0.88534000           1.39870000         
H                    -1.90642000           0.89034000          -0.93065000         
H                    -2.98690000           0.00017000           0.18826000         
H                    -1.90664000          -0.89046000          -0.93049000         
H                     1.05583000          -1.43784000          -1.35933000         
16
Image 17 energy:-0.04576 
C                     1.17464000          -1.28209000          -0.26629000         
C                     0.52729000           0.00000000           0.16150000         
C                     1.17462000           1.28211000          -0.26628000         
C                    -0.84583000          -0.00001000           0.76328000         
C                    -1.98119000          -0.00002000          -0.29525000         
H                     0.70591000          -2.15913000           0.20617000         
H                     2.25016000          -1.29235000          -0.01560000         
H                     1.12166000           1.43594000          -1.36336000         
H                     2.25010000           1.29245000          -0.01545000         
H                     0.70577000           2.15916000           0.20610000         
H                    -0.96561000           0.88354000           1.41100000         
H                    -0.96560000          -0.88360000           1.41096000         
H                    -1.95248000           0.89012000          -0.94815000         
H                    -2.90855000           0.00002000           0.26547000         
H                    -1.95269000          -0.89015000          -0.94827000         
H                     1.12157000          -1.43596000          -1.36337000         
16
Image 18 energy:-0.04616 
C                     1.19007000          -1.27841000          -0.26758000         
C                     0.52906000           0.00000000           0.15691000         
C                     1.19004000           1.27843000          -0.26757000         
C                    -0.84503000          -0.00002000           0.75206000         
C                    -2.01774000          -0.00001000          -0.28157000         
H                     0.71676000          -2.15882000           0.19825000         
H                     2.25551000          -1.26957000           0.02185000         
H                     1.16487000           1.44090000          -1.36722000         
H                     2.25546000           1.26967000           0.02197000         
H                     0.71664000           2.15885000           0.19817000         
H                    -0.97080000           0.87780000           1.39965000         
H                    -0.97077000          -0.87788000           1.39960000         
H                    -1.94705000           0.88060000          -0.91567000         
H                    -2.99088000          -0.00004000           0.22784000         
H                    -1.94698000          -0.88059000          -0.91568000         
H                     1.16479000          -1.44093000          -1.36723000         
16
Image 19 energy:-0.04414 
C                     1.19892000          -1.27747000          -0.26588000         
C                     0.54093000           0.00000000           0.16808000         
C                     1.19889000           1.27749000          -0.26587000         
C                    -0.86238000          -0.00002000           0.73415000         
C                    -2.01513000          -0.00001000          -0.26646000         
H                     0.71723000          -2.16503000           0.17113000         
H                     2.26874000          -1.29758000           0.01221000         
H                     1.17321000           1.40211000          -1.36914000         
H                     2.26868000           1.29768000           0.01235000         
H                     0.71710000           2.16505000           0.17104000         
H                    -0.96520000           0.88252000           1.40118000         
H                    -0.96518000          -0.88259000           1.40115000         
H                    -2.04708000           0.88429000          -0.95004000         
H                    -3.02271000          -0.00008000           0.23088000         
H                    -2.04699000          -0.88423000          -0.95014000         
H                     1.17312000          -1.40215000          -1.36914000         
16
Image 20 energy:-0.04510 
C                     1.20860000          -1.27793000          -0.26714000         
C                     0.56022000           0.00000000           0.18474000         
C                     1.20857000           1.27795000          -0.26713000         
C                    -0.85004000          -0.00002000           0.73681000         
C                    -2.06868000          -0.00001000          -0.28539000         
H                     0.72123000          -2.16619000           0.16199000         
H                     2.27947000          -1.31135000           0.00302000         
H                     1.17310000           1.38802000          -1.37104000         
H                     2.27941000           1.31146000           0.00316000         
H                     0.72110000           2.16620000           0.16190000         
H                    -0.97333000           0.88225000           1.38655000         
H                    -0.97332000          -0.88230000           1.38652000         
H                    -2.04335000           0.89008000          -0.92489000         
H                    -3.01255000          -0.00010000           0.27572000         
H                    -2.04325000          -0.89000000          -0.92502000         
H                     1.17301000          -1.38805000          -1.37104000         
16
Image 21 energy:-0.04076 
C                     1.21253000          -1.27835000          -0.26824000         
C                     0.57317000           0.00000000           0.19313000         
C                     1.21250000           1.27837000          -0.26823000         
C                    -0.82096000          -0.00002000           0.76126000         
C                    -2.11094000          -0.00001000          -0.31025000         
H                     0.71974000          -2.16586000           0.15549000         
H                     2.28357000          -1.32076000           0.00001000         
H                     1.17459000           1.37880000          -1.37263000         
H                     2.28350000           1.32087000           0.00014000         
H                     0.71961000           2.16587000           0.15540000         
H                    -0.95962000           0.88726000           1.39914000         
H                    -0.95961000          -0.88731000           1.39912000         
H                    -2.08568000           0.89322000          -0.95140000         
H                    -3.05454000          -0.00010000           0.25696000         
H                    -2.08558000          -0.89313000          -0.95153000         
H                     1.17450000          -1.37884000          -1.37264000         
16
Image 22 energy:-0.03356 
C                     1.21432000          -1.27852000          -0.26891000         
C                     0.58100000           0.00000000           0.19804000         
C                     1.21429000           1.27854000          -0.26890000         
C                    -0.78720000          -0.00002000           0.78911000         
C                    -2.15193000          -0.00001000          -0.33892000         
H                     0.71872000          -2.16556000           0.15202000         
H                     2.28529000          -1.32518000          -0.00103000         
H                     1.17555000           1.37322000          -1.37340000         
H                     2.28523000           1.32529000          -0.00089000         
H                     0.71858000           2.16556000           0.15192000         
H                    -0.94624000           0.89346000           1.41287000         
H                    -0.94623000          -0.89351000           1.41285000         
H                    -2.11118000           0.89748000          -0.97043000         