31
Image 1 energy:-0.02307 
C                    -2.16748000          -0.35525000          -1.30329000         
C                    -1.41373000          -0.22620000          -0.00928000         
C                    -2.03053000          -0.98411000           1.13207000         
C                    -0.15159000           0.61997000           0.12743000         
C                    -0.16947000           1.76946000          -0.91659000         
C                    -0.13350000           1.31964000           1.51356000         
C                     1.16280000          -0.28905000          -0.07768000         
C                     1.35668000          -1.26605000           1.10356000         
C                     1.03654000          -1.13650000          -1.36280000         
C                     2.43917000           0.57633000          -0.19539000         
H                    -3.14084000           0.16891000          -1.25923000         
H                    -2.40820000          -1.41079000          -1.51440000         
H                    -1.63071000           0.03821000          -2.16960000         
H                    -1.47681000          -0.89871000           2.07609000         
H                    -2.11809000          -2.06621000           0.89093000         
H                    -3.07017000          -0.63813000           1.32546000         
H                    -0.00459000           1.42591000          -1.94429000         
H                     0.60509000           2.51091000          -0.68826000         
H                    -1.13838000           2.28468000          -0.88899000         
H                     0.75242000           1.95804000           1.61901000         
H                    -0.13483000           0.61886000           2.35356000         
H                    -1.01538000           1.96177000           1.61455000         
H                     0.47883000          -1.90581000           1.25055000         
H                     1.56412000          -0.74169000           2.04393000         
H                     2.21502000          -1.92247000           0.89964000         
H                     0.21420000          -1.85766000          -1.28214000         
H                     1.96315000          -1.69973000          -1.53329000         
H                     0.86175000          -0.51804000          -2.25214000         
H                     2.56898000           1.24564000           0.66578000         
H                     2.43792000           1.18671000          -1.10640000         
H                     3.32319000          -0.07673000          -0.23874000         
31
Image 2 energy:-0.02311 
C                    -2.16979000          -0.35276000          -1.30371000         
C                    -1.41923000          -0.22069000          -0.00848000         
C                    -2.03143000          -0.98791000           1.12993000         
C                    -0.14992000           0.61866000           0.12582000         
C                    -0.17206000           1.77226000          -0.91610000         
C                    -0.12741000           1.31438000           1.51314000         
C                     1.16303000          -0.28677000          -0.07584000         
C                     1.35869000          -1.26536000           1.10400000         
C                     1.03574000          -1.13638000          -1.36134000         
C                     2.44022000           0.57592000          -0.19550000         
H                    -3.13544000           0.19049000          -1.26865000         
H                    -2.42791000          -1.40938000          -1.50166000         
H                    -1.61919000           0.02015000          -2.17535000         
H                    -1.53218000          -0.83941000           2.09076000         
H                    -2.03311000          -2.07478000           0.92388000         
H                    -3.09365000          -0.71306000           1.26560000         
H                    -0.01790000           1.42856000          -1.94527000         
H                     0.60986000           2.50974000          -0.69512000         
H                    -1.13989000           2.29191000          -0.87709000         
H                     0.74435000           1.97545000           1.60886000         
H                    -0.10272000           0.61161000           2.35162000         
H                    -1.03093000           1.93308000           1.62658000         
H                     0.46792000          -1.88310000           1.27061000         
H                     1.59918000          -0.74222000           2.03944000         
H                     2.19548000          -1.94430000           0.88544000         
H                     0.21402000          -1.86162000          -1.28191000         
H                     1.96713000          -1.69865000          -1.52912000         
H                     0.86007000          -0.52031000          -2.25276000         
H                     2.56555000           1.24767000           0.66411000         
H                     2.44450000           1.18254000          -1.11028000         
H                     3.32398000          -0.07757000          -0.23169000         
31
Image 3 energy:-0.02307 
C                    -2.16582000          -0.35554000          -1.30298000         
C                    -1.41799000          -0.21593000          -0.00620000         
C                    -2.01520000          -1.00131000           1.12774000         
C                    -0.15287000           0.62578000           0.12890000         
C                    -0.16750000           1.77346000          -0.91621000         
C                    -0.13028000           1.32769000           1.51529000         
C                     1.15888000          -0.28857000          -0.07861000         
C                     1.34901000          -1.26670000           1.10259000         
C                     1.02635000          -1.13327000          -1.36329000         
C                     2.44011000           0.56936000          -0.19465000         
H                    -3.14601000           0.16064000          -1.25750000         
H                    -2.39676000          -1.41574000          -1.51549000         
H                    -1.63175000           0.04388000          -2.16949000         
H                    -1.53908000          -0.81702000           2.09744000         
H                    -1.96186000          -2.09443000           0.93581000         
H                    -3.09432000          -0.77361000           1.23933000         
H                    -0.01090000           1.42653000          -1.94418000         
H                     0.61437000           2.50893000          -0.69367000         
H                    -1.13199000           2.29619000          -0.88417000         
H                     0.75515000           1.96867000           1.61348000         
H                    -0.12066000           0.62570000           2.35452000         
H                    -1.01457000           1.96618000           1.62416000         
H                     0.46357000          -1.89333000           1.26182000         
H                     1.57441000          -0.74434000           2.04024000         
H                     2.19490000          -1.93728000           0.89111000         
H                     0.19080000          -1.83952000          -1.28904000         
H                     1.94324000          -1.71378000          -1.52562000         
H                     0.86982000          -0.51131000          -2.25367000         
H                     2.57717000           1.22920000           0.67183000         
H                     2.44159000           1.18720000          -1.10153000         
H                     3.31960000          -0.08940000          -0.24521000         
31
Image 4 energy:-0.02308 
C                    -2.16964000          -0.35623000          -1.30161000         
C                    -1.42300000          -0.21301000          -0.00494000         
C                    -2.02048000          -0.99800000           1.12735000         
C                    -0.15106000           0.62273000           0.12718000         
C                    -0.17088000           1.77639000          -0.91482000         
C                    -0.12328000           1.32075000           1.51282000         
C                     1.15901000          -0.28731000          -0.07613000         
C                     1.35112000          -1.26509000           1.10412000         
C                     1.03321000          -1.13679000          -1.36218000         
C                     2.43883000           0.57252000          -0.19790000         
H                    -3.16984000           0.11252000          -1.24668000         
H                    -2.35287000          -1.42060000          -1.53264000         
H                    -1.65182000           0.07971000          -2.16184000         
H                    -1.50989000          -0.86694000           2.08524000         
H                    -2.02110000          -2.08003000           0.90192000         
H                    -3.08072000          -0.72927000           1.27877000         
H                    -0.00359000           1.43408000          -1.94251000         
H                     0.60350000           2.51922000          -0.68508000         
H                    -1.14225000           2.28953000          -0.88553000         
H                     0.78103000           1.93324000           1.62820000         
H                    -0.15871000           0.62215000           2.35507000         
H                    -0.99306000           1.98963000           1.60015000         
H                     0.47949000          -1.91722000           1.23484000         
H                     1.53725000          -0.74018000           2.05019000         
H                     2.22051000          -1.90968000           0.91141000         
H                     0.19508000          -1.84369000          -1.29512000         
H                     1.95500000          -1.71985000          -1.51340000         
H                     0.88597000          -0.51903000          -2.25855000         
H                     2.58365000           1.22748000           0.67187000         
H                     2.43156000           1.19615000          -1.10036000         
H                     3.31770000          -0.08548000          -0.26155000         
31
Image 5 energy:-0.02304 
C                    -2.16634000          -0.35696000          -1.30509000         
C                    -1.41596000          -0.22192000          -0.00903000         
C                    -2.03297000          -0.98887000           1.12848000         
C                    -0.15252000           0.62076000           0.13092000         
C                    -0.16649000           1.77299000          -0.90967000         
C                    -0.13448000           1.31546000           1.51959000         
C                     1.16366000          -0.28748000          -0.08017000         
C                     1.36357000          -1.26138000           1.10274000         
C                     1.03061000          -1.13893000          -1.36166000         
C                     2.43965000           0.57720000          -0.20481000         
H                    -3.17369000           0.10969000          -1.22857000         
H                    -2.34996000          -1.42294000          -1.55517000         
H                    -1.66177000           0.10165000          -2.16178000         
H                    -1.49839000          -0.88719000           2.07833000         
H                    -2.09367000          -2.07257000           0.89481000         
H                    -3.08032000          -0.66503000           1.30486000         
H                     0.00179000           1.43207000          -1.93765000         
H                     0.60846000           2.51189000          -0.67677000         
H                    -1.13357000           2.28971000          -0.88267000         
H                     0.75950000           1.94223000           1.63198000         
H                    -0.14983000           0.61113000           2.35529000         
H                    -1.01000000           1.96752000           1.62127000         
H                     0.49116000          -1.91119000           1.24568000         
H                     1.56247000          -0.73464000           2.04506000         
H                     2.22875000          -1.90978000           0.90270000         
H                     0.20293000          -1.85280000          -1.27773000         
H                     1.95252000          -1.71119000          -1.53067000         
H                     0.85760000          -0.52178000          -2.25223000         
H                     2.57489000           1.24299000           0.65785000         
H                     2.43662000           1.19022000          -1.11543000         
H                     3.32325000          -0.07744000          -0.25388000         
31
Image 6 energy:-0.02308 
C                    -2.17111000          -0.34806000          -1.30541000         
C                    -1.41873000          -0.22163000          -0.01065000         
C                    -2.02838000          -0.99260000           1.12515000         
C                    -0.15026000           0.61815000           0.12764000         
C                    -0.17125000           1.77400000          -0.91139000         
C                    -0.12891000           1.31025000           1.51692000         
C                     1.16255000          -0.28696000          -0.07601000         
C                     1.36485000          -1.26185000           1.10582000         
C                     1.03140000          -1.13908000          -1.35876000         
C                     2.43736000           0.57856000          -0.20142000         
H                    -3.14939000           0.16157000          -1.25731000         
H                    -2.39726000          -1.40363000          -1.52482000         
H                    -1.63817000           0.05683000          -2.16964000         
H                    -1.50871000          -0.86868000           2.08025000         
H                    -2.05754000          -2.07646000           0.90232000         
H                    -3.08274000          -0.69605000           1.28313000         
H                    -0.01066000           1.43400000          -1.94091000         
H                     0.60622000           2.51425000          -0.68432000         
H                    -1.14130000           2.28981000          -0.87692000         
H                     0.74268000           1.97084000           1.61426000         
H                    -0.10262000           0.60455000           2.35357000         
H                    -1.03134000           1.92854000           1.63131000         
H                     0.47265000          -1.87352000           1.28625000         
H                     1.61959000          -0.73668000           2.03587000         
H                     2.19598000          -1.94657000           0.87987000         
H                     0.21918000          -1.87350000          -1.26842000         
H                     1.96671000          -1.68992000          -1.53748000         
H                     0.83770000          -0.52558000          -2.24814000         
H                     2.56193000           1.25606000           0.65396000         
H                     2.43728000           1.18002000          -1.11915000         
H                     3.32299000          -0.07227000          -0.23542000         
31
Image 7 energy:-0.02297 
C                    -2.16676000          -0.34851000          -1.30421000         
C                    -1.41514000          -0.22089000          -0.00732000         
C                    -2.01798000          -1.00487000           1.12378000         
C                    -0.15353000           0.62378000           0.13324000         
C                    -0.16869000           1.77528000          -0.90863000         
C                    -0.13247000           1.31742000           1.52110000         
C                     1.15891000          -0.28500000          -0.08163000         
C                     1.35395000          -1.25803000           1.10228000         
C                     1.02984000          -1.14133000          -1.36222000         
C                     2.43821000           0.57555000          -0.20403000         
H                    -3.13109000           0.21322000          -1.26419000         
H                    -2.44269000          -1.40797000          -1.50389000         
H                    -1.61111000           0.02233000          -2.17623000         
H                    -1.52683000          -0.84848000           2.08790000         
H                    -1.99594000          -2.09156000           0.91543000         
H                    -3.08648000          -0.75217000           1.25452000         
H                    -0.01008000           1.43191000          -1.93723000         
H                     0.61269000           2.51069000          -0.68287000         
H                    -1.13173000           2.29841000          -0.87712000         
H                     0.74468000           1.97145000           1.61887000         
H                    -0.11240000           0.61012000           2.35628000         
H                    -1.02813000           1.94263000           1.63618000         
H                     0.46247000          -1.87202000           1.27384000         
H                     1.59993000          -0.73348000           2.03446000         
H                     2.18773000          -1.94092000           0.88355000         
H                     0.21050000          -1.86518000          -1.27117000         
H                     1.95960000          -1.70286000          -1.53364000         
H                     0.84390000          -0.53023000          -2.25563000         
H                     2.56852000           1.25041000           0.65307000         
H                     2.44340000           1.17948000          -1.12073000         
H                     3.32004000          -0.08353000          -0.23878000         
31
Image 8 energy:-0.02310 
C                    -2.16734000          -0.35315000          -1.30364000         
C                    -1.42328000          -0.21134000          -0.00597000         
C                    -2.01537000          -1.00732000           1.12303000         
C                    -0.15155000           0.62413000           0.12827000         
C                    -0.17020000           1.77936000          -0.91093000         
C                    -0.12629000           1.32036000           1.51668000         
C                     1.15883000          -0.28785000          -0.07555000         
C                     1.35751000          -1.26517000           1.10473000         
C                     1.02271000          -1.13390000          -1.36045000         
C                     2.43807000           0.57168000          -0.20207000         
H                    -3.15862000           0.13227000          -1.25673000         
H                    -2.36633000          -1.41469000          -1.52653000         
H                    -1.64176000           0.06723000          -2.16546000         
H                    -1.52783000          -0.84673000           2.08954000         
H                    -1.97393000          -2.09425000           0.91037000         
H                    -3.08895000          -0.77361000           1.25037000         
H                    -0.01357000           1.43733000          -1.94064000         
H                     0.61175000           2.51524000          -0.68618000         
H                    -1.13811000           2.29912000          -0.87257000         
H                     0.77103000           1.94286000           1.62902000         
H                    -0.14628000           0.61886000           2.35667000         
H                    -1.00211000           1.97781000           1.61227000         
H                     0.48098000          -1.90676000           1.25529000         
H                     1.56669000          -0.73866000           2.04523000         
H                     2.21567000          -1.92100000           0.89861000         
H                     0.19230000          -1.84768000          -1.28479000         
H                     1.94544000          -1.70848000          -1.52540000         
H                     0.85990000          -0.51441000          -2.25181000         
H                     2.57438000           1.23987000           0.65798000         
H                     2.43609000           1.18108000          -1.11417000         
H                     3.31895000          -0.08362000          -0.24887000         
31
Image 9 energy:-0.02306 
C                    -2.16576000          -0.35763000          -1.30451000         
C                    -1.42348000          -0.21258000          -0.00526000         
C                    -2.02454000          -0.99982000           1.12330000         
C                    -0.15263000           0.62220000           0.13468000         
C                    -0.16538000           1.77591000          -0.90505000         
C                    -0.12627000           1.31584000           1.52263000         
C                     1.15825000          -0.28503000          -0.08229000         
C                     1.35681000          -1.25720000           1.10233000         
C                     1.02762000          -1.13955000          -1.36391000         
C                     2.43835000           0.57450000          -0.20824000         
H                    -3.18936000           0.05831000          -1.22809000         
H                    -2.29865000          -1.42438000          -1.56764000         
H                    -1.67653000           0.13019000          -2.15389000         
H                    -1.52598000          -0.85483000           2.08675000         
H                    -2.01109000          -2.08557000           0.90650000         
H                    -3.09065000          -0.73987000           1.25947000         
H                     0.00322000           1.43643000          -1.93298000         
H                     0.60787000           2.51807000          -0.67069000         
H                    -1.13388000           2.29111000          -0.87974000         
H                     0.77410000           1.93396000           1.63475000         
H                    -0.14942000           0.61202000           2.36041000         
H                    -0.99859000           1.97775000           1.61846000         
H                     0.48370000          -1.90430000           1.25246000         
H                     1.56194000          -0.73002000           2.04230000         
H                     2.21999000          -1.90870000           0.90083000         
H                     0.18832000          -1.84432000          -1.29009000         
H                     1.94710000          -1.72442000          -1.52055000         
H                     0.87416000          -0.52088000          -2.25764000         
H                     2.58476000           1.22940000           0.66142000         
H                     2.42812000           1.19874000          -1.11173000         
H                     3.31795000          -0.08505000          -0.27326000         
31
Image 10 energy:-0.02305 
C                    -2.16819000          -0.35433000          -1.30596000         
C                    -1.41755000          -0.21942000          -0.01090000         
C                    -2.02989000          -0.99164000           1.12514000         
C                    -0.15028000           0.62091000           0.12660000         
C                    -0.17137000           1.78156000          -0.90753000         
C                    -0.12988000           1.30776000           1.51865000         
C                     1.16432000          -0.28903000          -0.07443000         
C                     1.37039000          -1.26599000           1.10421000         
C                     1.02573000          -1.13757000          -1.35797000         
C                     2.43598000           0.57967000          -0.20608000         
H                    -3.18484000           0.07947000          -1.22229000         
H                    -2.32018000          -1.41812000          -1.57087000         
H                    -1.67720000           0.12772000          -2.15686000         
H                    -1.51085000          -0.87382000           2.07973000         
H                    -2.06647000          -2.07483000           0.90015000         
H                    -3.08230000          -0.68940000           1.28615000         
H                     0.00328000           1.44617000          -1.93682000         
H                     0.60059000           2.52328000          -0.66956000         
H                    -1.14438000           2.29243000          -0.87882000         
H                     0.75232000           1.95190000           1.62597000         
H                    -0.12380000           0.59992000           2.35238000         
H                    -1.01978000           1.94113000           1.63054000         
H                     0.48330000          -1.88911000           1.26714000         
H                     1.60319000          -0.74075000           2.03991000         
H                     2.21244000          -1.93857000           0.88647000         
H                     0.21061000          -1.86575000          -1.26481000         
H                     1.95362000          -1.69457000          -1.53952000         
H                     0.83292000          -0.52438000          -2.24742000         
H                     2.57116000           1.25034000           0.65303000         
H                     2.42792000           1.18747000          -1.11842000         
H                     3.32083000          -0.07045000          -0.25569000         
31
Image 11 energy:-0.02301 
C                    -2.16996000          -0.34565000          -1.30433000         
C                    -1.42036000          -0.22098000          -0.00860000         
C                    -2.02780000          -1.00107000           1.12374000         
C                    -0.15229000           0.61759000           0.13368000         
C                    -0.16392000           1.77151000          -0.90525000         
C                    -0.13481000           1.30960000           1.52370000         
C                     1.16162000          -0.28307000          -0.08221000         
C                     1.36475000          -1.25463000           1.10223000         
C                     1.02915000          -1.14035000          -1.36169000         
C                     2.43916000           0.57946000          -0.20919000         
H                    -3.15608000           0.14803000          -1.25115000         
H                    -2.37981000          -1.40244000          -1.53434000         
H                    -1.64407000           0.07698000          -2.16406000         
H                    -1.49850000          -0.88933000           2.07656000         
H                    -2.06633000          -2.08540000           0.88876000         
H                    -3.08151000          -0.69726000           1.29420000         
H                     0.00177000           1.43190000          -1.93426000         
H                     0.61281000           2.50945000          -0.67312000         
H                    -1.13173000           2.28900000          -0.87652000         
H                     0.74244000           1.96383000           1.62660000         
H                    -0.11763000           0.60113000           2.35882000         
H                    -1.03352000           1.93458000           1.63496000         
H                     0.47929000          -1.87851000           1.27711000         
H                     1.60796000          -0.72677000           2.03475000         
H                     2.20555000          -1.92914000           0.88104000         
H                     0.22844000          -1.88606000          -1.26108000         
H                     1.97230000          -1.67865000          -1.54855000         
H                     0.81601000          -0.53146000          -2.25077000         
H                     2.56180000           1.25971000           0.64443000         
H                     2.44319000           1.17867000          -1.12967000         
H                     3.32429000          -0.07400000          -0.23756000         
31
Image 12 energy:-0.02302 
C                    -2.17232000          -0.34244000          -1.30499000         
C                    -1.41615000          -0.21752000          -0.01060000         
C                    -2.01168000          -1.01399000           1.11664000         
C                    -0.15182000           0.62588000           0.12888000         
C                    -0.17267000           1.78281000          -0.90827000         
C                    -0.12828000           1.31380000           1.51918000         
C                     1.15925000          -0.29025000          -0.07380000         
C                     1.36672000          -1.26170000           1.10917000         
C                     1.02264000          -1.14026000          -1.35680000         
C                     2.43090000           0.57717000          -0.20631000         
H                    -3.14970000           0.18625000          -1.25411000         
H                    -2.41599000          -1.40288000          -1.52137000         