25
Image 1 energy:-0.02803 
C                    -2.66766000          -0.83785000          -0.11169000         
C                    -1.61685000           0.08225000           0.42018000         
C                    -0.42397000           0.54582000          -0.36275000         
C                    -0.27794000           2.07898000          -0.23000000         
C                     0.89863000          -0.24725000          -0.00499000         
C                     2.03662000           0.16171000          -0.96215000         
C                     1.33269000           0.01340000           1.45026000         
C                     0.63031000          -1.75522000          -0.18388000         
H                    -3.66293000          -0.35689000          -0.15176000         
H                    -2.79517000          -1.73718000           0.51756000         
H                    -2.42783000          -1.17951000          -1.12709000         
H                    -1.73758000           0.46174000           1.43852000         
H                    -0.61303000           0.32146000          -1.42852000         
H                    -0.13547000           2.37479000           0.81980000         
H                    -1.19036000           2.57510000          -0.59069000         
H                     0.56951000           2.46814000          -0.81048000         
H                     2.92157000          -0.47043000          -0.79748000         
H                     2.34778000           1.20413000          -0.81469000         
H                     1.73131000           0.04279000          -2.01255000         
H                     1.59880000           1.06704000           1.61489000         
H                     2.21650000          -0.59399000           1.69953000         
H                     0.53253000          -0.25303000           2.15627000         
H                     1.54649000          -2.33646000          -0.00073000         
H                     0.28840000          -1.97853000          -1.20617000         
H                    -0.14058000          -2.10736000           0.51528000         
25
Image 2 energy:-0.02784 
C                    -2.66754000          -0.84043000          -0.11233000         
C                    -1.61498000           0.08168000           0.41840000         
C                    -0.42401000           0.54791000          -0.36597000         
C                    -0.27927000           2.07990000          -0.22131000         
C                     0.89649000          -0.24451000          -0.00560000         
C                     2.03795000           0.15678000          -0.96311000         
C                     1.33650000           0.01460000           1.44896000         
C                     0.62768000          -1.75330000          -0.18495000         
H                    -3.65903000          -0.35257000          -0.17551000         
H                    -2.81390000          -1.73220000           0.52872000         
H                    -2.41617000          -1.19907000          -1.11854000         
H                    -1.74934000           0.46908000           1.42850000         
H                    -0.61103000           0.32666000          -1.43157000         
H                    -0.12961000           2.36350000           0.82836000         
H                    -1.19816000           2.57825000          -0.56508000         
H                     0.56067000           2.47729000          -0.80804000         
H                     2.94874000          -0.42890000          -0.72666000         
H                     2.30141000           1.22427000          -0.87878000         
H                     1.76840000          -0.04744000          -2.01710000         
H                     1.62108000           1.06432000           1.60652000         
H                     2.20648000          -0.60551000           1.70564000         
H                     0.52862000          -0.23127000           2.15263000         
H                     1.54358000          -2.33674000          -0.01870000         
H                     0.27014000          -1.97105000          -1.20275000         
H                    -0.13394000          -2.10622000           0.52461000         
25
Image 3 energy:-0.02799 
C                    -2.66587000          -0.83978000          -0.10826000         
C                    -1.62019000           0.08489000           0.42009000         
C                    -0.42480000           0.54498000          -0.36098000         
C                    -0.27647000           2.07809000          -0.23087000         
C                     0.89917000          -0.24742000          -0.00640000         
C                     2.03682000           0.16401000          -0.96142000         
C                     1.33000000           0.01181000           1.44985000         
C                     0.63224000          -1.75534000          -0.18679000         
H                    -3.65784000          -0.34985000          -0.18332000         
H                    -2.81058000          -1.71863000           0.54820000         
H                    -2.40647000          -1.21372000          -1.11193000         
H                    -1.74448000           0.47410000           1.43474000         
H                    -0.61514000           0.32138000          -1.42796000         
H                    -0.13935000           2.37973000           0.81927000         
H                    -1.18364000           2.57321000          -0.60192000         
H                     0.57475000           2.46870000          -0.80751000         
H                     2.92001000          -0.46817000          -0.80204000         
H                     2.34750000           1.20467000          -0.80865000         
H                     1.72934000           0.05048000          -2.01069000         
H                     1.61306000           1.06069000           1.61184000         
H                     2.20280000          -0.60903000           1.70391000         
H                     0.52482000          -0.23902000           2.15434000         
H                     1.55188000          -2.33318000          -0.00377000         
H                     0.29080000          -1.98049000          -1.20857000         
H                    -0.13660000          -2.11191000           0.51273000         
25
Image 4 energy:-0.02789 
C                    -2.67545000          -0.83170000          -0.10070000         
C                    -1.61274000           0.08136000           0.42389000         
C                    -0.42474000           0.54087000          -0.37020000         
C                    -0.28025000           2.07400000          -0.24277000         
C                     0.89856000          -0.24715000          -0.00352000         
C                     2.04060000           0.16991000          -0.95471000         
C                     1.32846000           0.00917000           1.45428000         
C                     0.63821000          -1.75577000          -0.19172000         
H                    -3.66954000          -0.34080000          -0.14461000         
H                    -2.81040000          -1.73260000           0.53462000         
H                    -2.43377000          -1.18543000          -1.11380000         
H                    -1.73041000           0.47137000           1.44062000         
H                    -0.61470000           0.30689000          -1.43226000         
H                    -0.14885000           2.37118000           0.80423000         
H                    -1.18991000           2.57096000          -0.60654000         
H                     0.57071000           2.46208000          -0.82135000         
H                     2.91114000          -0.49851000          -0.81303000         
H                     2.38670000           1.19941000          -0.76871000         
H                     1.72878000           0.09813000          -2.01269000         
H                     1.57170000           1.06614000           1.62259000         
H                     2.22087000          -0.57899000           1.70616000         
H                     0.53020000          -0.27352000           2.15317000         
H                     1.54751000          -2.33851000           0.00466000         
H                     0.31366000          -1.97418000          -1.21933000         
H                    -0.14364000          -2.10824000           0.49294000         
25
Image 5 energy:-0.02791 
C                    -2.67810000          -0.82542000          -0.09924000         
C                    -1.61691000           0.08253000           0.42436000         
C                    -0.42340000           0.53858000          -0.36345000         
C                    -0.28179000           2.07343000          -0.24518000         
C                     0.90252000          -0.24644000          -0.00640000         
C                     2.04689000           0.16674000          -0.95374000         
C                     1.32198000           0.00790000           1.45332000         
C                     0.64154000          -1.75590000          -0.19431000         
H                    -3.67790000          -0.34601000          -0.09231000         
H                    -2.78087000          -1.74430000           0.51293000         
H                    -2.46617000          -1.13861000          -1.13625000         
H                    -1.73032000           0.45978000           1.43946000         
H                    -0.61584000           0.30655000          -1.42833000         
H                    -0.13139000           2.38069000           0.80463000         
H                    -1.19856000           2.56203000          -0.60586000         
H                     0.56179000           2.46386000          -0.83322000         
H                     2.93976000          -0.44402000          -0.76977000         
H                     2.33288000           1.21882000          -0.82421000         
H                     1.75323000           0.02126000          -2.00303000         
H                     1.54464000           1.07076000           1.63790000         
H                     2.23179000          -0.56737000           1.68942000         
H                     0.53380000          -0.30676000           2.15468000         
H                     1.55900000          -2.33265000           0.01683000         
H                     0.33267000          -1.98294000          -1.22838000         
H                    -0.14953000          -2.11432000           0.48274000         
25
Image 6 energy:-0.02787 
C                    -2.67907000          -0.82561000          -0.09951000         
C                    -1.60902000           0.08000000           0.42125000         
C                    -0.42189000           0.54241000          -0.37295000         
C                    -0.28351000           2.07645000          -0.25003000         
C                     0.89933000          -0.24928000          -0.00323000         
C                     2.04265000           0.17036000          -0.94721000         
C                     1.32568000           0.00585000           1.45589000         
C                     0.63839000          -1.75816000          -0.19276000         
H                    -3.68346000          -0.36203000          -0.03037000         
H                    -2.74803000          -1.77114000           0.47056000         
H                    -2.50690000          -1.08926000          -1.15265000         
H                    -1.69102000           0.42970000           1.45901000         
H                    -0.61273000           0.30759000          -1.43452000         
H                    -0.12214000           2.37633000           0.79254000         
H                    -1.20792000           2.56565000          -0.58916000         
H                     0.54676000           2.46755000          -0.85251000         
H                     2.95093000          -0.41740000          -0.72246000         
H                     2.30696000           1.23429000          -0.83572000         
H                     1.77899000          -0.01103000          -2.00428000         
H                     1.57400000           1.06231000           1.62938000         
H                     2.21702000          -0.58847000           1.70578000         
H                     0.52639000          -0.27794000           2.15590000         
H                     1.55379000          -2.34125000          -0.01709000         
H                     0.29066000          -1.97146000          -1.21547000         
H                    -0.13212000          -2.11378000           0.50479000         
25
Image 7 energy:-0.02793 
C                    -2.67596000          -0.83111000          -0.10056000         
C                    -1.61908000           0.08399000           0.42197000         
C                    -0.42516000           0.53772000          -0.36546000         
C                    -0.27812000           2.07317000          -0.25255000         
C                     0.90105000          -0.24516000          -0.00458000         
C                     2.05033000           0.16850000          -0.94836000         
C                     1.32246000           0.00973000           1.45547000         
C                     0.63448000          -1.75216000          -0.19192000         
H                    -3.68853000          -0.40120000           0.00924000         
H                    -2.70061000          -1.80046000           0.43822000         
H                    -2.52267000          -1.06026000          -1.16554000         
H                    -1.71703000           0.43641000           1.44853000         
H                    -0.61699000           0.30204000          -1.42986000         
H                    -0.10643000           2.38108000           0.79173000         
H                    -1.20135000           2.56280000          -0.59552000         
H                     0.55411000           2.45820000          -0.86066000         
H                     2.93485000          -0.45981000          -0.77467000         
H                     2.35590000           1.21019000          -0.79410000         
H                     1.75768000           0.05233000          -2.00091000         
H                     1.60454000           1.05963000           1.62339000         
H                     2.19312000          -0.61276000           1.71296000         
H                     0.51191000          -0.24441000           2.15340000         
H                     1.56045000          -2.32848000          -0.04206000         
H                     0.26511000          -1.96825000          -1.20676000         
H                    -0.11229000          -2.11903000           0.52573000         
25
Image 8 energy:-0.02792 
C                    -2.66838000          -0.83717000          -0.10939000         
C                    -1.61840000           0.08601000           0.41556000         
C                    -0.42271000           0.54572000          -0.36660000         
C                    -0.27555000           2.07879000          -0.24301000         
C                     0.89594000          -0.24896000          -0.00058000         
C                     2.03329000           0.16618000          -0.95670000         
C                     1.32838000           0.01431000           1.45452000         
C                     0.63631000          -1.76056000          -0.17986000         
H                    -3.68421000          -0.41162000          -0.00705000         
H                    -2.68951000          -1.79730000           0.43509000         
H                    -2.50651000          -1.06671000          -1.17475000         
H                    -1.71760000           0.44045000           1.44689000         
H                    -0.60969000           0.31494000          -1.43037000         
H                    -0.13264000           2.38047000           0.80399000         
H                    -1.18972000           2.57207000          -0.60609000         
H                     0.57108000           2.46112000          -0.82841000         
H                     2.90412000          -0.49509000          -0.82269000         
H                     2.37392000           1.19665000          -0.77539000         
H                     1.71443000           0.09275000          -2.01070000         
H                     1.60104000           1.06544000           1.61507000         
H                     2.20684000          -0.59644000           1.70845000         
H                     0.52684000          -0.24392000           2.16021000         
H                     1.55931000          -2.33733000          -0.01368000         
H                     0.27934000          -1.98186000          -1.19662000         
H                    -0.12202000          -2.12122000           0.53002000         
25
Image 9 energy:-0.02787 
C                    -2.66770000          -0.84268000          -0.11738000         
C                    -1.62183000           0.08347000           0.41560000         
C                    -0.42354000           0.54280000          -0.36199000         
C                    -0.27705000           2.07614000          -0.23058000         
C                     0.90246000          -0.24367000          -0.00226000         
C                     2.03649000           0.15739000          -0.96528000         
C                     1.33770000           0.01999000           1.45199000         
C                     0.62609000          -1.75075000          -0.17392000         
H                    -3.68486000          -0.40049000          -0.03703000         
H                    -2.71317000          -1.81162000           0.43138000         
H                    -2.49021000          -1.08146000          -1.17855000         
H                    -1.73957000           0.45126000           1.43749000         
H                    -0.61012000           0.31597000          -1.42851000         
H                    -0.15355000           2.38323000           0.81812000         
H                    -1.17593000           2.57041000          -0.61330000         
H                     0.58044000           2.46950000          -0.80309000         
H                     2.91320000          -0.49118000          -0.81895000         
H                     2.36360000           1.19677000          -0.81055000         
H                     1.71419000           0.05371000          -2.01259000         
H                     1.58574000           1.07796000           1.61848000         
H                     2.22999000          -0.57167000           1.69989000         
H                     0.54362000          -0.26077000           2.15705000         
H                     1.53829000          -2.33539000           0.02002000         
H                     0.28874000          -1.97963000          -1.19610000         
H                    -0.15001000          -2.09493000           0.52338000         
25
Image 10 energy:-0.02782 
C                    -2.65860000          -0.84592000          -0.11350000         
C                    -1.61886000           0.08647000           0.41336000         
C                    -0.42366000           0.55181000          -0.36593000         
C                    -0.27758000           2.08428000          -0.22298000         
C                     0.89396000          -0.24709000          -0.00557000         
C                     2.03528000           0.15178000          -0.96453000         
C                     1.33144000           0.02165000           1.44695000         
C                     0.62706000          -1.75721000          -0.17695000         
H                    -3.66601000          -0.40416000          -0.09648000         
H                    -2.72974000          -1.76609000           0.48560000         
H                    -2.44603000          -1.14651000          -1.14527000         
H                    -1.73838000           0.46187000           1.43386000         
H                    -0.61049000           0.33303000          -1.43296000         
H                    -0.15346000           2.36788000           0.83324000         
H                    -1.19276000           2.58514000          -0.58996000         
H                     0.58035000           2.47008000          -0.78048000         
H                     2.92533000          -0.47353000          -0.77496000         
H                     2.33946000           1.20163000          -0.83538000         
H                     1.74112000           0.00575000          -2.01832000         
H                     1.57434000           1.08399000           1.60990000         
H                     2.23346000          -0.56754000           1.68904000         
H                     0.53929000          -0.26519000           2.15946000         
H                     1.54345000          -2.33807000           0.01780000         
H                     0.29386000          -1.98787000          -1.20251000         
H                    -0.15078000          -2.10545000           0.51824000         
25
Image 11 energy:-0.02797 
C                    -2.66325000          -0.84808000          -0.11602000         
C                    -1.61941000           0.08228000           0.41364000         
C                    -0.42419000           0.54880000          -0.36393000         
C                    -0.27702000           2.07998000          -0.21693000         
C                     0.89797000          -0.24434000          -0.00620000         
C                     2.03593000           0.15438000          -0.96721000         
C                     1.33484000           0.02316000           1.44706000         
C                     0.62639000          -1.75310000          -0.17756000         
H                    -3.66230000          -0.36564000          -0.17704000         
H                    -2.79676000          -1.73904000           0.53208000         
H                    -2.40877000          -1.20856000          -1.12555000         
H                    -1.74520000           0.46160000           1.43073000         
H                    -0.61024000           0.33117000          -1.43187000         
H                    -0.14410000           2.36657000           0.83684000         
H                    -1.18544000           2.58134000          -0.58155000         
H                     0.57663000           2.47434000          -0.78574000         
H                     2.93153000          -0.45175000          -0.77127000         
H                     2.32424000           1.20802000          -0.85623000         
H                     1.74368000          -0.01040000          -2.01466000         
H                     1.63528000           1.06984000           1.59656000         
H                     2.19573000          -0.60941000           1.71131000         
H                     0.52185000          -0.20458000           2.15141000         
H                     1.54733000          -2.33360000          -0.01413000         
H                     0.26236000          -1.97715000          -1.19212000         
H                    -0.12920000          -2.10572000           0.53809000         
25
Image 12 energy:-0.02763 
C                    -2.66095000          -0.84784000          -0.11249000         
C                    -1.61406000           0.08024000           0.41270000         
C                    -0.42210000           0.55060000          -0.36891000         
C                    -0.27291000           2.08231000          -0.21757000         
C                     0.89523000          -0.24390000          -0.00717000         
C                     2.03367000           0.15627000          -0.96550000         
C                     1.32616000           0.02244000           1.44934000         
C                     0.62777000          -1.75480000          -0.18091000         
H                    -3.65528000          -0.36257000          -0.18381000         
H                    -2.80440000          -1.72974000           0.54330000         
H                    -2.40609000          -1.22105000          -1.11432000         
H                    -1.72831000           0.44204000           1.43603000         
H                    -0.61150000           0.33330000          -1.43734000         
H                    -0.10649000           2.35410000           0.83729000         
H                    -1.20796000           2.58398000          -0.54374000         
H                     0.56303000           2.47471000          -0.80041000         
H                     2.94664000          -0.41098000          -0.73682000         
H                     2.28504000           1.22445000          -0.89236000         
H                     1.75877000          -0.05985000          -2.00918000         
H                     1.67064000           1.05989000           1.58819000         
H                     2.15674000          -0.64569000           1.73664000         
H                     0.49049000          -0.15925000           2.14524000         
H                     1.55847000          -2.33252000          -0.04854000         
H                     0.23520000          -1.97281000          -1.18700000         
H                    -0.10692000          -2.11771000           0.55370000         
25
Image 13 energy:-0.02783 
C                    -2.66450000          -0.84401000          -0.10866000         
C                    -1.61754000           0.08437000           0.41487000         
C                    -0.42551000           0.54868000          -0.36827000         
C                    -0.28373000           2.07991000          -0.22121000         
C                     0.90018000          -0.24526000          -0.00707000         
C                     2.04220000           0.15290000          -0.96255000         
C                     1.32886000           0.01945000           1.44829000         
C                     0.62922000          -1.75245000          -0.18423000         
H                    -3.66536000          -0.36849000          -0.15108000         
H                    -2.78152000          -1.73632000           0.53581000         
H                    -2.41992000          -1.19569000          -1.12330000         
H                    -1.72787000           0.45630000           1.43891000         
H                    -0.60900000           0.33041000          -1.43385000         
H                    -0.14775000           2.36667000           0.83348000         
H                    -1.18053000           2.58633000          -0.58222000         
H                     0.56966000           2.48135000          -0.79883000         
H                     2.94510000          -0.43986000          -0.74023000         
H                     2.31543000           1.21514000          -0.86950000         
H                     1.76646000          -0.04095000          -2.01344000         
H                     1.61424000           1.06950000           1.60439000         
H                     2.19578000          -0.60408000           1.71142000         
H                     0.51606000          -0.22404000           2.14809000         
H                     1.54827000          -2.33299000          -0.02104000         
H                     0.26794000          -1.97389000          -1.20020000         
H                    -0.12557000          -2.10832000           0.52858000         
25
Image 14 energy:-0.02781 
C                    -2.66231000          -0.84394000          -0.11259000         
C                    -1.62007000           0.08645000           0.41769000         
C                    -0.42283000           0.54707000          -0.36160000         
C                    -0.27592000           2.08123000          -0.23281000         
C                     0.89468000          -0.24571000          -0.00340000         
C                     2.03369000           0.15928000          -0.96239000         
C                     1.33484000           0.01594000           1.45000000         
C                     0.62909000          -1.75575000          -0.18034000         
H                    -3.67250000          -0.37695000          -0.11336000         
H                    -2.75458000          -1.76908000           0.50046000         
H                    -2.43542000          -1.15497000          -1.14761000         
H                    -1.74597000           0.47116000           1.43274000         
H                    -0.61565000           0.32335000          -1.42962000         
H                    -0.16119000           2.37584000           0.81750000         
H                    -1.19547000           2.56922000          -0.61327000         
H                     0.58222000           2.46601000          -0.78757000         
H                     2.92618000          -0.46304000          -0.77363000         
H                     2.33174000           1.20817000          -0.83065000         
H                     1.73834000           0.01842000          -2.01286000         
H                     1.59098000           1.07212000           1.61530000         
H                     2.22579000          -0.58384000           1.68987000         
H                     0.54354000          -0.25885000           2.16231000         
H                     1.55148000          -2.33150000           0.00397000         
H                     0.29085000          -1.98233000          -1.20394000         
H                    -0.14260000          -2.11431000           0.51701000         
25
Image 15 energy:-0.02791 
C                    -2.66074000          -0.84831000          -0.11710000         
C                    -1.62489000           0.08886000           0.41181000         