25
Image 1 energy:-0.00600 
C                     2.23435000           0.43475000          -1.06237000         
C                     1.53660000           0.04106000           0.21716000         
C                     1.88739000          -1.33963000           0.72189000         
C                     0.64888000           0.80987000           0.88059000         
C                     0.14833000           2.18050000           0.52079000         
C                    -1.81489000          -1.02293000          -0.12367000         
C                    -2.98160000          -0.37947000           0.55235000         
C                    -1.48938000          -0.72876000          -1.55096000         
H                     1.94481000           1.42611000          -1.42938000         
H                     2.01913000          -0.29507000          -1.86123000         
H                     3.32900000           0.43128000          -0.92638000         
H                     2.97290000          -1.44354000           0.89066000         
H                     1.61315000          -2.10965000          -0.02020000         
H                     1.36949000          -1.57587000           1.66137000         
H                     0.21942000           0.39583000           1.79914000         
H                    -0.95121000           2.18000000           0.44535000         
H                     0.54771000           2.54961000          -0.43324000         
H                     0.40888000           2.91682000           1.30030000         
H                    -1.34490000          -1.88332000           0.35461000         
H                    -3.94942000          -0.83867000           0.25677000         
H                    -3.06069000           0.69080000           0.29113000         
H                    -2.91653000          -0.45792000           1.64841000         
H                    -2.23999000          -1.15250000          -2.25062000         
H                    -0.51067000          -1.13697000          -1.83829000         
H                    -1.47133000           0.35804000          -1.74344000         
25
Image 2 energy:-0.00591 
C                     2.25134000           0.44343000          -1.05346000         
C                     1.53865000           0.04291000           0.21609000         
C                     1.87814000          -1.34214000           0.71482000         
C                     0.64983000           0.81358000           0.87889000         
C                     0.14985000           2.18392000           0.51929000         
C                    -1.82089000          -1.03192000          -0.12456000         
C                    -2.98042000          -0.38060000           0.55673000         
C                    -1.49677000          -0.73465000          -1.55265000         
H                     1.94815000           1.42594000          -1.42944000         
H                     2.06200000          -0.29375000          -1.85424000         
H                     3.34429000           0.46165000          -0.89791000         
H                     2.96749000          -1.47209000           0.83861000         
H                     1.55410000          -2.10930000          -0.01159000         
H                     1.39231000          -1.56018000           1.67584000         
H                     0.21221000           0.39515000           1.79249000         
H                    -0.94864000           2.18386000           0.43540000         
H                     0.56216000           2.55899000          -0.42956000         
H                     0.40383000           2.91817000           1.30317000         
H                    -1.35504000          -1.89562000           0.35145000         
H                    -3.95141000          -0.84455000           0.27959000         
H                    -3.06119000           0.68891000           0.28396000         
H                    -2.90246000          -0.44488000           1.65235000         
H                    -2.28004000          -1.11047000          -2.24693000         
H                    -0.54203000          -1.18972000          -1.85796000         
H                    -1.42676000           0.35303000          -1.73233000         
25
Image 3 energy:-0.00595 
C                     2.23712000           0.43677000          -1.05809000         
C                     1.53761000           0.04204000           0.21912000         
C                     1.88613000          -1.34269000           0.72094000         
C                     0.64970000           0.80987000           0.87786000         
C                     0.15542000           2.18271000           0.51577000         
C                    -1.81536000          -1.02161000          -0.12472000         
C                    -2.98499000          -0.38872000           0.55472000         
C                    -1.49589000          -0.72281000          -1.54991000         
H                     1.94298000           1.42724000          -1.43215000         
H                     2.03541000          -0.29901000          -1.85262000         
H                     3.33080000           0.44434000          -0.91496000         
H                     2.97105000          -1.44767000           0.89691000         
H                     1.61632000          -2.11040000          -0.02608000         
H                     1.36264000          -1.58320000           1.65558000         
H                     0.22158000           0.40070000           1.79906000         
H                    -0.94441000           2.18818000           0.44098000         
H                     0.55345000           2.54733000          -0.43876000         
H                     0.41974000           2.91886000           1.29330000         
H                    -1.34168000          -1.88148000           0.34972000         
H                    -3.94974000          -0.85262000           0.25521000         
H                    -3.07287000           0.68083000           0.29949000         
H                    -2.91946000          -0.47297000           1.65090000         
H                    -2.25255000          -1.14006000          -2.24804000         
H                    -0.52195000          -1.13428000          -1.84611000         
H                    -1.47227000           0.36694000          -1.73621000         
25
Image 4 energy:-0.00593 
C                     2.21845000           0.42501000          -1.07061000         
C                     1.53462000           0.03465000           0.21621000         
C                     1.89855000          -1.33808000           0.73099000         
C                     0.64990000           0.80796000           0.88450000         
C                     0.14781000           2.17730000           0.52309000         
C                    -1.81184000          -1.01495000          -0.12726000         
C                    -2.98343000          -0.38422000           0.55113000         
C                    -1.48499000          -0.71267000          -1.55236000         
H                     1.91959000           1.41238000          -1.43902000         
H                     1.99692000          -0.30962000          -1.86496000         
H                     3.31598000           0.42490000          -0.94723000         
H                     2.98165000          -1.42460000           0.91226000         
H                     1.64529000          -2.11341000          -0.00989000         
H                     1.37564000          -1.57922000           1.66567000         
H                     0.22750000           0.39622000           1.80710000         
H                    -0.95353000           2.17405000           0.45630000         
H                     0.53761000           2.54184000          -0.43736000         
H                     0.41503000           2.91567000           1.29841000         
H                    -1.33511000          -1.87428000           0.34788000         
H                    -3.95008000          -0.84614000           0.24606000         
H                    -3.06342000           0.69214000           0.29937000         
H                    -2.91807000          -0.47134000           1.64962000         
H                    -2.22363000          -1.15180000          -2.25720000         
H                    -0.49468000          -1.10184000          -1.83331000         
H                    -1.48972000           0.37457000          -1.74757000         
25
Image 5 energy:-0.00587 
C                     2.21066000           0.41357000          -1.07763000         
C                     1.53906000           0.04084000           0.22349000         
C                     1.90203000          -1.33350000           0.73935000         
C                     0.65610000           0.81087000           0.88624000         
C                     0.14327000           2.17615000           0.52060000         
C                    -1.81132000          -1.02036000          -0.13168000         
C                    -2.98143000          -0.39028000           0.55008000         
C                    -1.48551000          -0.70154000          -1.55257000         
H                     1.94054000           1.41938000          -1.43785000         
H                     1.94653000          -0.31722000          -1.86927000         
H                     3.31340000           0.37579000          -0.97444000         
H                     2.99097000          -1.42651000           0.90421000         
H                     1.62958000          -2.11635000           0.00680000         
H                     1.38880000          -1.56335000           1.68458000         
H                     0.23688000           0.40484000           1.81319000         
H                    -0.95644000           2.15585000           0.42812000         
H                     0.55068000           2.54987000          -0.42787000         
H                     0.37962000           2.91988000           1.30039000         
H                    -1.33425000          -1.88277000           0.33447000         
H                    -3.95252000          -0.81050000           0.20532000         
H                    -3.03209000           0.69455000           0.34561000         
H                    -2.94537000          -0.53032000           1.64250000         
H                    -2.22659000          -1.12629000          -2.26292000         
H                    -0.50197000          -1.08468000          -1.84618000         
H                    -1.48610000           0.38818000          -1.72673000         
25
Image 6 energy:-0.00588 
C                     2.20654000           0.41917000          -1.07610000         
C                     1.53643000           0.03840000           0.22067000         
C                     1.90094000          -1.33490000           0.73541000         
C                     0.65697000           0.81282000           0.88954000         
C                     0.15127000           2.17885000           0.52021000         
C                    -1.81239000          -1.02320000          -0.12853000         
C                    -2.98979000          -0.39240000           0.54477000         
C                    -1.47810000          -0.70405000          -1.54817000         
H                     1.89227000           1.39278000          -1.45931000         
H                     1.99520000          -0.32594000          -1.85499000         
H                     3.29887000           0.43933000          -0.95849000         
H                     2.99219000          -1.44755000           0.84268000         
H                     1.57606000          -2.11616000           0.02804000         
H                     1.43841000          -1.54443000           1.70944000         
H                     0.24309000           0.40913000           1.81900000         
H                    -0.94602000           2.17003000           0.42070000         
H                     0.56650000           2.55513000          -0.42185000         
H                     0.38860000           2.91330000           1.30853000         
H                    -1.34500000          -1.89113000           0.34085000         
H                    -3.95628000          -0.82007000           0.20113000         
H                    -3.04548000           0.68945000           0.32859000         
H                    -2.95879000          -0.52093000           1.63628000         
H                    -2.25319000          -1.07736000          -2.24679000         
H                    -0.51811000          -1.14868000          -1.85339000         
H                    -1.41475000           0.38636000          -1.71926000         
25
Image 7 energy:-0.00575 
C                     2.21005000           0.40724000          -1.07933000         
C                     1.53902000           0.04151000           0.22411000         
C                     1.89982000          -1.33147000           0.74461000         
C                     0.65792000           0.81202000           0.88464000         
C                     0.15184000           2.18028000           0.51911000         
C                    -1.80983000          -1.02255000          -0.13328000         
C                    -2.98905000          -0.40621000           0.54781000         
C                    -1.48659000          -0.68515000          -1.55128000         
H                     1.85224000           1.35927000          -1.50089000         
H                     2.04487000          -0.38383000          -1.83639000         
H                     3.30632000           0.48464000          -0.94368000         
H                     2.99553000          -1.45504000           0.83079000         
H                     1.54948000          -2.12045000           0.05092000         
H                     1.45199000          -1.52346000           1.73126000         
H                     0.24463000           0.41299000           1.81608000         
H                    -0.94881000           2.17528000           0.43395000         
H                     0.55723000           2.55331000          -0.42881000         
H                     0.40272000           2.91725000           1.30569000         
H                    -1.33656000          -1.89178000           0.32433000         
H                    -3.95296000          -0.85348000           0.21028000         
H                    -3.06337000           0.67356000           0.32088000         
H                    -2.95060000          -0.52996000           1.64434000         
H                    -2.26588000          -1.04526000          -2.24900000         
H                    -0.53269000          -1.12853000          -1.87125000         
H                    -1.41631000           0.40697000          -1.70082000         
25
Image 8 energy:-0.00585 
C                     2.21333000           0.40112000          -1.07855000         
C                     1.53978000           0.03466000           0.22035000         
C                     1.90266000          -1.33108000           0.75312000         
C                     0.66109000           0.82127000           0.88540000         
C                     0.15108000           2.18421000           0.51294000         
C                    -1.81370000          -1.02287000          -0.13907000         
C                    -2.99089000          -0.41880000           0.55521000         
C                    -1.49059000          -0.67338000          -1.55388000         
H                     1.89750000           1.37423000          -1.47508000         
H                     1.99923000          -0.35963000          -1.84872000         
H                     3.31124000           0.42212000          -0.96100000         
H                     2.99336000          -1.43601000           0.88355000         
H                     1.59718000          -2.11952000           0.04371000         
H                     1.41764000          -1.53931000           1.71684000         
H                     0.24425000           0.41872000           1.81542000         
H                    -0.94478000           2.17061000           0.42011000         
H                     0.56559000           2.56089000          -0.43188000         
H                     0.39174000           2.92346000           1.29193000         
H                    -1.32920000          -1.89056000           0.31224000         
H                    -3.95355000          -0.85343000           0.21639000         
H                    -3.06415000           0.66401000           0.35955000         
H                    -2.94767000          -0.56225000           1.64187000         
H                    -2.26317000          -1.04719000          -2.26716000         
H                    -0.52259000          -1.09053000          -1.86917000         
H                    -1.44968000           0.42239000          -1.70023000         
25
Image 9 energy:-0.00588 
C                     2.21669000           0.40438000          -1.07152000         
C                     1.54447000           0.03788000           0.23047000         
C                     1.91005000          -1.33122000           0.75733000         
C                     0.65305000           0.80736000           0.88172000         
C                     0.14667000           2.16970000           0.49586000         
C                    -1.81121000          -1.01367000          -0.14157000         
C                    -2.98485000          -0.41724000           0.56441000         
C                    -1.50223000          -0.66130000          -1.56031000         
H                     1.91581000           1.38679000          -1.45371000         
H                     1.98520000          -0.34351000          -1.85224000         
H                     3.31591000           0.40391000          -0.95994000         
H                     2.99976000          -1.42689000           0.90866000         
H                     1.62478000          -2.11597000           0.03330000         
H                     1.40822000          -1.54829000           1.71499000         
H                     0.23891000           0.41539000           1.81519000         
H                    -0.95463000           2.16401000           0.40448000         
H                     0.55095000           2.52660000          -0.45736000         
H                     0.39310000           2.91748000           1.27255000         
H                    -1.32469000          -1.88316000           0.30076000         
H                    -3.94850000          -0.85381000           0.22073000         
H                    -3.06079000           0.66971000           0.38035000         
H                    -2.93349000          -0.57671000           1.65285000         
H                    -2.24427000          -1.08290000          -2.26765000         
H                    -0.51146000          -1.03759000          -1.86295000         
H                    -1.51047000           0.43375000          -1.71217000         
25
Image 10 energy:-0.00578 
C                     2.21638000           0.40021000          -1.07322000         
C                     1.54269000           0.03048000           0.22415000         
C                     1.91562000          -1.33025000           0.76277000         
C                     0.65489000           0.81246000           0.88334000         
C                     0.13405000           2.16745000           0.49879000         
C                    -1.80963000          -1.01227000          -0.14376000         
C                    -2.97710000          -0.41143000           0.56622000         
C                    -1.50363000          -0.66145000          -1.56191000         
H                     1.97521000           1.41842000          -1.41335000         
H                     1.92859000          -0.30278000          -1.87560000         
H                     3.31466000           0.32378000          -0.97302000         
H                     3.00323000          -1.41830000           0.93470000         
H                     1.65030000          -2.12068000           0.03716000         
H                     1.39972000          -1.55399000           1.70622000         
H                     0.23290000           0.40895000           1.81095000         
H                    -0.96221000           2.14607000           0.41127000         
H                     0.54064000           2.52889000          -0.45598000         
H                     0.37131000           2.91875000           1.26706000         
H                    -1.31480000          -1.87917000           0.29638000         
H                    -3.95089000          -0.83313000           0.21802000         
H                    -3.03936000           0.67929000           0.38552000         
H                    -2.92821000          -0.57958000           1.65879000         
H                    -2.21967000          -1.11913000          -2.28194000         
H                    -0.50015000          -0.98652000          -1.85714000         
H                    -1.56442000           0.42629000          -1.73105000         
25
Image 11 energy:-0.00568 
C                     2.20869000           0.40000000          -1.07668000         
C                     1.54091000           0.03560000           0.22794000         
C                     1.91647000          -1.32813000           0.76235000         
C                     0.65502000           0.80904000           0.88101000         
C                     0.14652000           2.17045000           0.49708000         
C                    -1.81159000          -1.01527000          -0.14196000         
C                    -2.98327000          -0.41512000           0.56400000         
C                    -1.50101000          -0.66162000          -1.55772000         
H                     2.01533000           1.42659000          -1.39651000         
H                     1.87180000          -0.26745000          -1.88299000         
H                     3.29814000           0.27191000          -1.00688000         
H                     2.99415000          -1.38107000           0.98578000         
H                     1.71552000          -2.11792000           0.02080000         
H                     1.36591000          -1.57435000           1.67899000         
H                     0.24053000           0.41547000           1.81466000         
H                    -0.95071000           2.14428000           0.36991000         
H                     0.57331000           2.54722000          -0.43850000         
H                     0.35542000           2.91019000           1.28786000         
H                    -1.32560000          -1.88754000           0.29709000         
H                    -3.94779000          -0.79913000           0.18656000         
H                    -3.02077000           0.67638000           0.42596000         
H                    -2.96216000          -0.61253000           1.63982000         
H                    -2.19674000          -1.14726000          -2.27053000         
H                    -0.48326000          -0.96931000          -1.83946000         
H                    -1.58806000           0.42488000          -1.73027000         
25
Image 12 energy:-0.00541 
C                     2.19877000           0.39403000          -1.08328000         
C                     1.53951000           0.03189000           0.22469000         
C                     1.91688000          -1.32721000           0.76454000         
C                     0.66300000           0.81979000           0.89094000         
C                     0.13807000           2.16969000           0.49374000         
C                    -1.81029000          -1.02115000          -0.14021000         
C                    -2.98095000          -0.41430000           0.56130000         
C                    -1.49182000          -0.65919000          -1.55370000         
H                     2.02796000           1.43361000          -1.38296000         
H                     1.83326000          -0.24894000          -1.89753000         
H                     3.28662000           0.23416000          -1.02840000         
H                     2.99958000          -1.37166000           1.00668000         
H                     1.73264000          -2.11797000           0.00755000         
H                     1.34673000          -1.58212000           1.67534000         
H                     0.24424000           0.42146000           1.82156000         
H                    -0.94268000           2.14296000           0.35911000         
H                     0.58633000           2.55629000          -0.43152000         
H                     0.32760000           2.90933000           1.28591000         
H                    -1.32856000          -1.89484000           0.30014000         
H                    -3.95154000          -0.74857000           0.12895000         
H                    -2.98084000           0.68805000           0.47360000         
H                    -3.00220000          -0.67475000           1.63406000         
H                    -2.20464000          -1.11648000          -2.27622000         
H                    -0.48409000          -0.98577000          -1.84504000         
H                    -1.55233000           0.43211000          -1.71274000         
25
Image 13 energy:-0.00527 
C                     2.19332000           0.39022000          -1.08558000         
C                     1.54447000           0.03809000           0.23207000         
C                     1.91800000          -1.32412000           0.76861000         
C                     0.66005000           0.81526000           0.88529000         
C                     0.14326000           2.17372000           0.50001000         
C                    -1.80963000          -1.02094000          -0.14395000         
C                    -2.98055000          -0.41812000           0.56079000         
C                    -1.49154000          -0.65803000          -1.55600000         
H                     2.00857000           1.42918000          -1.39159000         
H                     1.82289000          -0.26672000          -1.89629000         
H                     3.28718000           0.23563000          -1.03263000         
H                     3.00819000          -1.40288000           0.94055000         
H                     1.65814000          -2.11555000           0.03894000         
H                     1.39911000          -1.54993000           1.71343000         
H                     0.25588000           0.42728000           1.82543000         
H                    -0.96712000           2.12021000           0.31194000         
H                     0.59779000           2.56411000          -0.41292000         
H                     0.30912000           2.91404000           1.29517000         
H                    -1.33178000          -1.89991000           0.28990000         
H                    -3.94697000          -0.75485000           0.13143000         
H                    -2.98439000           0.68336000           0.47611000         
H                    -2.99803000          -0.67317000           1.62733000         
H                    -2.22828000          -1.07590000          -2.27706000         
H                    -0.49838000          -1.02401000          -1.85321000         
H                    -1.50401000           0.43575000          -1.70638000         
25
Image 14 energy:-0.00506 
C                     2.19284000           0.39073000          -1.08415000         
C                     1.54561000           0.03932000           0.23467000         
C                     1.91907000          -1.32471000           0.76867000         
C                     0.66322000           0.81574000           0.89213000         
C                     0.13334000           2.16339000           0.49033000         
C                    -1.80871000          -1.01897000          -0.14597000         
C                    -2.97863000          -0.41793000           0.55997000         
C                    -1.49209000          -0.65289000          -1.55834000         
H                     1.96746000           1.41636000          -1.41985000         
H                     1.85844000          -0.30647000          -1.87730000         
H                     3.29240000           0.28574000          -1.02074000         
H                     3.00938000          -1.43086000           0.88772000         
H                     1.60374000          -2.11552000           0.06674000         
H                     1.44455000          -1.52473000           1.74047000         
H                     0.25903000           0.43129000           1.83501000         
H                    -0.93645000           2.14888000           0.35979000         
H                     0.59881000           2.55040000          -0.43404000         
H                     0.31041000           2.91519000           1.30072000         
H                    -1.33083000          -1.89889000           0.28715000         
H                    -3.94337000          -0.76630000           0.13268000         
H                    -2.98932000           0.68226000           0.46901000         
H                    -2.99446000          -0.67349000           1.62931000         
H                    -2.24557000          -1.04199000          -2.26973000         
H                    -0.51330000          -1.05180000          -1.86685000         
H                    -1.47047000           0.44308000          -1.69299000         
25
Image 15 energy:-0.00532 
C                     2.19700000           0.39141000          -1.08223000         
C                     1.54585000           0.03560000           0.23081000         