28
Image 1 energy:-0.02985 
C                    -1.63877000           1.28443000          -1.05219000         
C                    -1.04760000           0.00512000          -0.53244000         
C                    -1.64332000          -1.27032000          -1.05676000         
C                    -0.08630000           0.00046000           0.65416000         
C                    -0.32464000           1.22928000           1.57077000         
C                    -0.32111000          -1.24166000           1.55755000         
C                     1.42343000           0.00355000           0.17425000         
C                     1.81736000          -1.25235000          -0.62485000         
C                     1.79502000           1.24399000          -0.65725000         
H                    -2.56687000           1.56568000          -0.50921000         
H                    -1.92184000           1.18483000          -2.11525000         
H                    -0.95497000           2.14225000          -0.96663000         
H                    -2.53237000          -1.59255000          -0.47153000         
H                    -0.93947000          -2.11570000          -1.03187000         
H                    -1.98630000          -1.14342000          -2.09617000         
H                    -0.17302000           2.18788000           1.06454000         
H                     0.35953000           1.19523000           2.43165000         
H                    -1.35315000           1.21982000           1.95751000         
H                    -1.32750000          -1.22177000           1.98844000         
H                     0.39776000          -1.24328000           2.38784000         
H                    -0.20981000          -2.18889000           1.02543000         
H                     2.02727000           0.01989000           1.09854000         
H                     1.64498000          -2.18159000          -0.06768000         
H                     2.88310000          -1.21688000          -0.88441000         
H                     1.25138000          -1.30553000          -1.56586000         
H                     1.25159000           1.24860000          -1.61250000         
H                     2.87038000           1.22776000          -0.88915000         
H                     1.58804000           2.18796000          -0.13960000         
28
Image 2 energy:-0.02983 
C                    -1.63370000           1.28243000          -1.05938000         
C                    -1.04764000           0.00329000          -0.52620000         
C                    -1.63747000          -1.26792000          -1.06293000         
C                    -0.08902000          -0.00175000           0.66099000         
C                    -0.32387000           1.22755000           1.57890000         
C                    -0.31492000          -1.24251000           1.56368000         
C                     1.41652000           0.00636000           0.16864000         
C                     1.80811000          -1.25329000          -0.62365000         
C                     1.79391000           1.24672000          -0.66361000         
H                    -2.58936000           1.54484000          -0.55920000         
H                    -1.86402000           1.19388000          -2.13090000         
H                    -0.96975000           2.14627000          -0.93399000         
H                    -2.55319000          -1.57166000          -0.50970000         
H                    -0.95408000          -2.12393000          -1.01027000         
H                    -1.93857000          -1.14111000          -2.11433000         
H                    -0.19038000           2.18421000           1.06538000         
H                     0.37909000           1.20307000           2.42456000         
H                    -1.34452000           1.20999000           1.98614000         
H                    -1.30964000          -1.19242000           2.03260000         
H                     0.43919000          -1.26554000           2.36401000         
H                    -0.25257000          -2.19180000           1.02033000         
H                     2.02637000           0.02602000           1.09125000         
H                     1.62770000          -2.17863000          -0.06590000         
H                     2.87952000          -1.22220000          -0.87066000         
H                     1.25162000          -1.30643000          -1.56912000         
H                     1.24322000           1.25632000          -1.61165000         
H                     2.86402000           1.23210000          -0.90164000         
H                     1.58976000           2.18639000          -0.14083000         
28
Image 3 energy:-0.02979 
C                    -1.62366000           1.28049000          -1.06511000         
C                    -1.05014000           0.00311000          -0.52451000         
C                    -1.65279000          -1.26508000          -1.05589000         
C                    -0.08683000          -0.00270000           0.65938000         
C                    -0.32410000           1.22507000           1.57974000         
C                    -0.31480000          -1.24529000           1.56061000         
C                     1.42303000           0.00705000           0.17283000         
C                     1.81855000          -1.24880000          -0.62531000         
C                     1.78563000           1.24779000          -0.66331000         
H                    -2.59283000           1.52907000          -0.59207000         
H                    -1.83262000           1.18880000          -2.14674000         
H                    -0.97532000           2.15098000          -0.92153000         
H                    -2.59219000          -1.53078000          -0.52957000         
H                    -0.99029000          -2.13440000          -0.96522000         
H                    -1.91649000          -1.15627000          -2.11882000         
H                    -0.19200000           2.18424000           1.06871000         
H                     0.37773000           1.20230000           2.42625000         
H                    -1.34310000           1.20408000           1.98799000         
H                    -1.31862000          -1.21658000           2.00134000         
H                     0.41199000          -1.25422000           2.38424000         
H                    -0.21884000          -2.19601000           1.02922000         
H                     2.03121000           0.02857000           1.09450000         
H                     1.64775000          -2.17506000          -0.06398000         
H                     2.88101000          -1.21567000          -0.88897000         
H                     1.24761000          -1.30430000          -1.56247000         
H                     1.20264000           1.27237000          -1.59886000         
H                     2.85520000           1.20930000          -0.93762000         
H                     1.61603000           2.19399000          -0.12388000         
28
Image 4 energy:-0.02974 
C                    -1.62144000           1.28210000          -1.06874000         
C                    -1.04605000           0.00484000          -0.52302000         
C                    -1.65375000          -1.26370000          -1.05252000         
C                    -0.08464000          -0.00335000           0.66265000         
C                    -0.32316000           1.22230000           1.58520000         
C                    -0.31520000          -1.24689000           1.56131000         
C                     1.41952000           0.00788000           0.16818000         
C                     1.81309000          -1.25022000          -0.62687000         
C                     1.78574000           1.24777000          -0.66806000         
H                    -2.59423000           1.53817000          -0.58816000         
H                    -1.81601000           1.19615000          -2.14405000         
H                    -0.96581000           2.14989000          -0.91900000         
H                    -2.59859000          -1.52325000          -0.52991000         
H                    -0.99476000          -2.13483000          -0.94810000         
H                    -1.91110000          -1.16256000          -2.11842000         
H                    -0.17778000           2.18186000           1.08002000         
H                     0.36637000           1.18805000           2.44116000         
H                    -1.34983000           1.20859000           1.97673000         
H                    -1.34707000          -1.26068000           1.93584000         
H                     0.35892000          -1.21097000           2.42828000         
H                    -0.13984000          -2.19301000           1.04259000         
H                     2.03406000           0.02915000           1.08774000         
H                     1.67218000          -2.18019000          -0.05800000         
H                     2.88125000          -1.19289000          -0.90451000         
H                     1.22961000          -1.32127000          -1.55926000         
H                     1.24056000           1.24413000          -1.62151000         
H                     2.85672000           1.24768000          -0.90208000         
H                     1.56369000           2.18732000          -0.15365000         
28
Image 5 energy:-0.02945 
C                    -1.62166000           1.28270000          -1.06313000         
C                    -1.05318000           0.00471000          -0.52158000         
C                    -1.65505000          -1.26393000          -1.05730000         
C                    -0.08573000          -0.00116000           0.65968000         
C                    -0.31952000           1.22398000           1.58432000         
C                    -0.31123000          -1.24570000           1.56018000         
C                     1.42188000           0.00708000           0.17181000         
C                     1.81191000          -1.25165000          -0.62617000         
C                     1.78657000           1.24651000          -0.66631000         
H                    -2.59647000           1.53133000          -0.61560000         
H                    -1.81378000           1.19351000          -2.15404000         
H                    -0.97157000           2.15047000          -0.90575000         
H                    -2.59992000          -1.52425000          -0.54269000         
H                    -0.99531000          -2.13596000          -0.95645000         
H                    -1.90801000          -1.15640000          -2.12395000         
H                    -0.17499000           2.18640000           1.08199000         
H                     0.37576000           1.18709000           2.43480000         
H                    -1.34367000           1.20756000           1.98483000         
H                    -1.34849000          -1.26078000           1.93277000         
H                     0.36204000          -1.20735000           2.43245000         
H                    -0.13119000          -2.19634000           1.04188000         
H                     2.03111000           0.02909000           1.09294000         
H                     1.71889000          -2.17108000          -0.04226000         
H                     2.84871000          -1.18737000          -0.96634000         
H                     1.18551000          -1.34749000          -1.51838000         
H                     1.30104000           1.19920000          -1.65121000         
H                     2.87444000           1.28172000          -0.82955000         
H                     1.49572000           2.19045000          -0.18954000         
28
Image 6 energy:-0.02919 
C                    -1.63002000           1.27899000          -1.07485000         
C                    -1.05326000           0.00516000          -0.51907000         
C                    -1.65046000          -1.26170000          -1.06320000         
C                    -0.08776000          -0.00207000           0.66291000         
C                    -0.31642000           1.22595000           1.58491000         
C                    -0.30968000          -1.24663000           1.56325000         
C                     1.41940000           0.00664000           0.17019000         
C                     1.80601000          -1.25315000          -0.62590000         
C                     1.79358000           1.24774000          -0.66019000         
H                    -2.62224000           1.52367000          -0.60480000         
H                    -1.78697000           1.19943000          -2.14665000         
H                    -0.98879000           2.15078000          -0.90832000         
H                    -2.59737000          -1.52776000          -0.54415000         
H                    -0.99283000          -2.13105000          -0.96683000         
H                    -1.90200000          -1.15214000          -2.12882000         
H                    -0.19747000           2.18493000           1.07195000         
H                     0.39617000           1.20744000           2.42249000         
H                    -1.33017000           1.20325000           2.00674000         
H                    -1.31874000          -1.23165000           1.99276000         
H                     0.40911000          -1.24552000           2.39378000         
H                    -0.19330000          -2.19529000           1.03200000         
H                     2.02952000           0.02687000           1.09115000         
H                     1.75514000          -2.16862000          -0.01880000         
H                     2.83832000          -1.15831000          -1.00132000         
H                     1.14452000          -1.37807000          -1.49815000         
H                     1.30810000           1.21339000          -1.65060000         
H                     2.88044000           1.27737000          -0.82565000         
H                     1.50917000           2.19019000          -0.16974000         
28
Image 7 energy:-0.02913 
C                    -1.62796000           1.27915000          -1.06603000         
C                    -1.05372000           0.00398000          -0.52066000         
C                    -1.64950000          -1.26479000          -1.06302000         
C                    -0.08877000          -0.00227000           0.66153000         
C                    -0.31624000           1.22832000           1.57934000         
C                    -0.31112000          -1.24345000           1.56354000         
C                     1.41682000           0.00473000           0.16872000         
C                     1.80832000          -1.25409000          -0.62536000         
C                     1.79154000           1.24997000          -0.65457000         
H                    -2.60984000           1.50680000          -0.64257000         
H                    -1.81952000           1.18982000          -2.16715000         
H                    -0.99317000           2.15814000          -0.90642000         
H                    -2.59236000          -1.53918000          -0.55517000         
H                    -0.97980000          -2.13284000          -0.97434000         
H                    -1.90233000          -1.14845000          -2.12865000         
H                    -0.21054000           2.18573000           1.05947000         
H                     0.41183000           1.21778000           2.40455000         
H                    -1.32280000           1.19812000           2.01692000         
H                    -1.29784000          -1.20016000           2.04181000         
H                     0.44935000          -1.26840000           2.35566000         
H                    -0.24949000          -2.18761000           1.01687000         
H                     2.02668000           0.02060000           1.09105000         
H                     1.73077000          -2.17386000          -0.02339000         
H                     2.85283000          -1.17089000          -0.97265000         
H                     1.16870000          -1.36422000          -1.51657000         
H                     1.27182000           1.25297000          -1.62665000         
H                     2.87569000           1.24869000          -0.85480000         
H                     1.55474000           2.18836000          -0.13578000         
28
Image 8 energy:-0.02957 
C                    -1.63282000           1.27829000          -1.07011000         
C                    -1.05297000           0.00340000          -0.52614000         
C                    -1.65115000          -1.26632000          -1.06177000         
C                    -0.08584000          -0.00040000           0.65753000         
C                    -0.31537000           1.22848000           1.57764000         
C                    -0.31316000          -1.24184000           1.56337000         
C                     1.42231000           0.00251000           0.17198000         
C                     1.81595000          -1.25419000          -0.62488000         
C                     1.78483000           1.25046000          -0.65234000         
H                    -2.61610000           1.52628000          -0.59670000         
H                    -1.80343000           1.19467000          -2.14346000         
H                    -0.98873000           2.15072000          -0.90380000         
H                    -2.59423000          -1.53963000          -0.54161000         
H                    -0.98646000          -2.13371000          -0.96920000         
H                    -1.90908000          -1.15311000          -2.12656000         
H                    -0.20495000           2.18660000           1.05849000         
H                     0.40831000           1.21459000           2.40508000         
H                    -1.32626000           1.19824000           2.00994000         
H                    -1.29964000          -1.18724000           2.04996000         
H                     0.45239000          -1.27179000           2.35572000         
H                    -0.26464000          -2.19120000           1.01704000         
H                     2.02967000           0.01840000           1.09424000         
H                     1.67350000          -2.17797000          -0.05154000         
H                     2.87217000          -1.20596000          -0.91341000         
H                     1.22749000          -1.32888000          -1.54874000         
H                     1.21988000           1.27526000          -1.59280000         
H                     2.85460000           1.23545000          -0.90756000         
H                     1.59145000           2.18463000          -0.11502000         
28
Image 9 energy:-0.02975 
C                    -1.62846000           1.27950000          -1.06035000         
C                    -1.04246000           0.00327000          -0.52829000         
C                    -1.65146000          -1.26457000          -1.05720000         
C                    -0.08572000          -0.00433000           0.66009000         
C                    -0.32251000           1.22565000           1.57641000         
C                    -0.31786000          -1.24462000           1.56235000         
C                     1.42232000           0.00818000           0.17050000         
C                     1.81591000          -1.25119000          -0.62344000         
C                     1.78926000           1.24880000          -0.66367000         
H                    -2.60023000           1.51428000          -0.58137000         
H                    -1.84641000           1.19488000          -2.14651000         
H                    -0.98866000           2.15506000          -0.91241000         
H                    -2.59129000          -1.52590000          -0.52826000         
H                    -0.99041000          -2.13607000          -0.96789000         
H                    -1.91786000          -1.15894000          -2.12159000         
H                    -0.19046000           2.18305000           1.06422000         
H                     0.37770000           1.20485000           2.42504000         
H                    -1.34227000           1.20818000           1.98262000         
H                    -1.32279000          -1.20651000           2.00573000         
H                     0.41188000          -1.25465000           2.38637000         
H                    -0.22782000          -2.19771000           1.03136000         
H                     2.03280000           0.02793000           1.09242000         
H                     1.63364000          -2.17914000          -0.07147000         
H                     2.89018000          -1.21883000          -0.86564000         
H                     1.26349000          -1.30313000          -1.57219000         
H                     1.19270000           1.27673000          -1.58544000         
H                     2.84496000           1.22387000          -0.95200000         
H                     1.62032000           2.18386000          -0.11630000         
28
Image 10 energy:-0.02969 
C                    -1.63149000           1.28433000          -1.05588000         
C                    -1.04591000           0.00455000          -0.52890000         
C                    -1.65310000          -1.26660000          -1.04990000         
C                    -0.08476000          -0.00180000           0.65644000         
C                    -0.32884000           1.22412000           1.57724000         
C                    -0.31827000          -1.24493000           1.55467000         
C                     1.42362000           0.00749000           0.17229000         
C                     1.82360000          -1.24970000          -0.62203000         
C                     1.79001000           1.24451000          -0.66836000         
H                    -2.58270000           1.54515000          -0.55633000         
H                    -1.85592000           1.19607000          -2.12193000         
H                    -0.96299000           2.14923000          -0.92792000         
H                    -2.57750000          -1.54168000          -0.49897000         
H                    -0.98128000          -2.12988000          -0.97066000         
H                    -1.94218000          -1.15863000          -2.10497000         
H                    -0.16695000           2.18271000           1.07387000         
H                     0.34802000           1.18365000           2.44184000         
H                    -1.36142000           1.21591000           1.95374000         
H                    -1.34549000          -1.24954000           1.93689000         
H                     0.36335000          -1.21932000           2.41193000         
H                    -0.15899000          -2.19160000           1.03435000         
H                     2.03060000           0.03365000           1.09515000         
H                     1.63968000          -2.17982000          -0.06799000         
H                     2.89228000          -1.22218000          -0.87098000         
H                     1.26322000          -1.29498000          -1.56737000         
H                     1.21339000           1.26402000          -1.60878000         
H                     2.86176000           1.19946000          -0.93769000         
H                     1.62235000           2.19428000          -0.13768000         
28
Image 11 energy:-0.02949 
C                    -1.62062000           1.28611000          -1.06152000         
C                    -1.04775000           0.00548000          -0.52940000         
C                    -1.65543000          -1.26503000          -1.04978000         
C                    -0.08616000          -0.00357000           0.65845000         
C                    -0.32547000           1.22180000           1.58035000         
C                    -0.31705000          -1.24720000           1.55611000         
C                     1.42048000           0.00891000           0.17017000         
C                     1.81910000          -1.25134000          -0.62015000         
C                     1.78854000           1.24617000          -0.66938000         
H                    -2.56558000           1.57010000          -0.52800000         
H                    -1.88987000           1.18675000          -2.13505000         
H                    -0.95308000           2.14182000          -0.95124000         
H                    -2.56275000          -1.55656000          -0.48609000         
H                    -0.96946000          -2.12544000          -0.99833000         
H                    -1.97395000          -1.14836000          -2.10084000         
H                    -0.17102000           2.18283000           1.07739000         
H                     0.35488000           1.18285000           2.44457000         
H                    -1.35651000           1.21064000           1.96292000         
H                    -1.35213000          -1.26417000           1.92830000         
H                     0.35682000          -1.20894000           2.43140000         
H                    -0.13629000          -2.19186000           1.02974000         
H                     2.02938000           0.03325000           1.09215000         
H                     1.67418000          -2.17807000          -0.04963000         
H                     2.88642000          -1.19655000          -0.89274000         
H                     1.24134000          -1.32589000          -1.55550000         
H                     1.26522000           1.22926000          -1.62982000         
H                     2.86163000           1.25404000          -0.88160000         
H                     1.55074000           2.18870000          -0.17227000         
28
Image 12 energy:-0.02932 
C                    -1.63266000           1.28522000          -1.05996000         
C                    -1.04859000           0.00625000          -0.52746000         
C                    -1.65552000          -1.26232000          -1.06059000         
C                    -0.08516000          -0.00166000           0.65761000         
C                    -0.32308000           1.22522000           1.58038000         
C                    -0.30864000          -1.24701000           1.55665000         
C                     1.42036000           0.00645000           0.17132000         
C                     1.81576000          -1.25541000          -0.61723000         
C                     1.78962000           1.24502000          -0.66472000         
H                    -2.57578000           1.55859000          -0.56996000         
H                    -1.86245000           1.19090000          -2.12426000         
H                    -0.94288000           2.15113000          -0.95875000         
H                    -2.56818000          -1.56194000          -0.48607000         
H                    -0.97732000          -2.11849000          -1.00873000         
H                    -1.96622000          -1.14415000          -2.10523000         
H                    -0.18881000           2.18468000           1.07248000         
H                     0.37431000           1.19735000           2.42936000         
H                    -1.34608000           1.20581000           1.98157000         
H                    -1.33408000          -1.23886000           1.96533000         
H                     0.39560000          -1.23278000           2.40380000         
H                    -0.17319000          -2.19897000           1.02621000         
H                     2.02785000           0.03131000           1.09443000         
H                     1.70961000          -2.17284000          -0.03072000         
H                     2.86659000          -1.18809000          -0.92738000         
H                     1.21178000          -1.35250000          -1.52694000         
H                     1.30511000           1.20179000          -1.65202000         
H                     2.87644000           1.27866000          -0.82758000         
H                     1.49989000           2.18750000          -0.18441000         
28
Image 13 energy:-0.02920 
C                    -1.62642000           1.28183000          -1.06972000         
C                    -1.05080000           0.00509000          -0.52723000         
C                    -1.65177000          -1.26240000          -1.06187000         
C                    -0.08957000          -0.00038000           0.66010000         
C                    -0.31958000           1.22786000           1.58053000         
C                    -0.30624000          -1.24671000           1.55957000         
C                     1.41848000           0.00633000           0.17215000         
C                     1.80880000          -1.25710000          -0.61752000         
C                     1.78945000           1.24751000          -0.65855000         
H                    -2.59068000           1.55191000          -0.56289000         
H                    -1.85684000           1.18041000          -2.14772000         
H                    -0.97557000           2.14232000          -0.93450000         
H                    -2.56776000          -1.54703000          -0.53110000         
H                    -0.97154000          -2.12941000          -1.01543000         
H                    -1.95052000          -1.12617000          -2.12025000         
H                    -0.21337000           2.18772000           1.06632000         