9
Image 1 energy:-0.01911 
C                    -1.90767000           0.00046000           0.00019000         
C                     1.79161000          -0.00051000          -0.00013000         
H                    -1.91884000           1.03799000          -0.32326000         
H                    -1.93235000          -0.79810000          -0.73702000         
H                    -1.93062000          -0.23798000           1.06027000         
H                     0.69310000          -0.01194000           0.00091000         
H                     2.14797000           0.90497000           0.50573000         
H                     2.15578000          -0.00853000          -1.03437000         
H                     2.16685000          -0.88587000           0.52703000         
9
Image 2 energy:-0.01911 
C                    -1.90707000           0.00029000           0.00046000         
C                     1.79088000          -0.00040000          -0.00032000         
H                    -1.92084000           1.04761000          -0.29340000         
H                    -1.92985000          -0.77752000          -0.76090000         
H                    -1.92614000          -0.26870000           1.05423000         
H                     0.69262000          -0.00765000          -0.00329000         
H                     2.14872000           0.91985000           0.47936000         
H                     2.15824000          -0.04083000          -1.03327000         
H                     2.16071000          -0.87150000           0.55563000         
9
Image 3 energy:-0.01911 
C                    -1.90950000           0.00047000           0.00018000         
C                     1.79350000          -0.00039000          -0.00030000         
H                    -1.92135000           1.03883000          -0.32088000         
H                    -1.93642000          -0.79665000          -0.73707000         
H                    -1.93292000          -0.24062000           1.06004000         
H                     0.69428000          -0.01269000           0.00103000         
H                     2.14817000           0.90567000           0.50604000         
H                     2.16026000          -0.00960000          -1.03530000         
H                     2.16916000          -0.88596000           0.52755000         
9
Image 4 energy:-0.01910 
C                    -1.91796000           0.00067000           0.00021000         
C                     1.80084000          -0.00075000           0.00013000         
H                    -1.92171000           1.03304000          -0.34364000         
H                    -1.94116000          -0.81309000          -0.72392000         
H                    -1.94251000          -0.21750000           1.06543000         
H                     0.70321000          -0.01898000           0.00425000         
H                     2.15565000           0.89637000           0.52467000         
H                     2.15636000           0.01735000          -1.03707000         
H                     2.18473000          -0.89615000           0.50612000         
9
Image 5 energy:-0.01910 
C                    -1.91946000           0.00068000          -0.00017000         
C                     1.80287000          -0.00068000          -0.00040000         
H                    -1.92372000           1.02288000          -0.36845000         
H                    -1.94855000          -0.82930000          -0.69835000         
H                    -1.94732000          -0.19013000           1.07031000         
H                     0.70340000          -0.02169000           0.01005000         
H                     2.15044000           0.88135000           0.55041000         
H                     2.16700000           0.04632000          -1.03629000         
H                     2.18699000          -0.90944000           0.47910000         
9
Image 6 energy:-0.01909 
C                    -1.92501000           0.00089000          -0.00008000         
C                     1.80716000          -0.00087000           0.00078000         
H                    -1.92194000           1.01549000          -0.39384000         
H                    -1.94688000          -0.84636000          -0.68476000         
H                    -1.95560000          -0.16664000           1.07323000         
H                     0.70947000          -0.02539000           0.01169000         
H                     2.16573000           0.86874000           0.56831000         
H                     2.14950000           0.07318000          -1.03752000         
H                     2.20288000          -0.91932000           0.45464000         
9
Image 7 energy:-0.01910 
C                    -1.92617000           0.00081000          -0.00028000         
C                     1.80874000          -0.00087000          -0.00006000         
H                    -1.92563000           1.00379000          -0.41813000         
H                    -1.95394000          -0.86261000          -0.65875000         
H                    -1.95544000          -0.13746000           1.07812000         
H                     0.71032000          -0.02686000           0.01228000         
H                     2.15774000           0.85145000           0.59476000         
H                     2.16596000           0.10365000          -1.03255000         
H                     2.19927000          -0.93127000           0.42835000         
9
Image 8 energy:-0.01911 
C                    -1.91420000           0.00071000          -0.00028000         
C                     1.79787000          -0.00082000           0.00053000         
H                    -1.91659000           0.99783000          -0.43379000         
H                    -1.94148000          -0.87194000          -0.64733000         
H                    -1.94831000          -0.12225000           1.07828000         
H                     0.69931000          -0.02338000           0.01254000         
H                     2.15452000           0.84213000           0.60520000         
H                     2.14657000           0.11699000          -1.03214000         
H                     2.19118000          -0.93811000           0.41434000         
9
Image 9 energy:-0.01911 
C                    -1.89960000           0.00062000          -0.00021000         
C                     1.78457000          -0.00048000           0.00015000         
H                    -1.90853000           0.99645000          -0.43465000         
H                    -1.92697000          -0.87406000          -0.64623000         
H                    -1.93154000          -0.12114000           1.08016000         
H                     0.68649000          -0.01919000           0.00978000         
H                     2.14240000           0.83969000           0.60773000         
H                     2.14116000           0.11686000          -1.03052000         
H                     2.16656000          -0.94035000           0.41450000         
9
Image 10 energy:-0.01910 
C                    -1.88518000           0.00039000          -0.00021000         
C                     1.77152000          -0.00085000           0.00028000         
H                    -1.89716000           0.99701000          -0.43477000         
H                    -1.91650000          -0.87219000          -0.64512000         
H                    -1.91997000          -0.12001000           1.07883000         
H                     0.67264000          -0.01470000           0.00809000         
H                     2.12645000           0.83936000           0.60800000         
H                     2.12711000           0.11670000          -1.03038000         
H                     2.16067000          -0.94072000           0.41450000         
9
Image 11 energy:-0.01908 
C                    -1.87205000           0.00011000           0.00004000         
C                     1.75912000           0.00020000           0.00009000         
H                    -1.88852000           0.99646000          -0.43531000         
H                    -1.89843000          -0.87446000          -0.64519000         
H                    -1.90442000          -0.12190000           1.07849000         
H                     0.66043000          -0.01036000           0.00597000         
H                     2.12740000           0.83633000           0.60869000         
H                     2.11979000           0.11379000          -1.02956000         
H                     2.12840000          -0.94359000           0.41538000         
9
Image 12 energy:-0.01905 
C                    -1.85870000           0.00097000          -0.00056000         
C                     1.74643000          -0.00091000           0.00028000         
H                    -1.88138000           0.99337000          -0.43304000         
H                    -1.88455000          -0.87553000          -0.64437000         
H                    -1.88524000          -0.12214000           1.08166000         
H                     0.64852000          -0.00523000           0.00302000         
H                     2.10491000           0.83704000           0.60920000         
H                     2.10745000           0.11477000          -1.02882000         
H                     2.12707000          -0.94308000           0.41579000         
9
Image 13 energy:-0.01900 
C                    -1.84563000          -0.00115000           0.00069000         
C                     1.73439000           0.00046000          -0.00030000         
H                    -1.85753000           0.99939000          -0.43708000         
H                    -1.87481000          -0.87026000          -0.64692000         
H                    -1.88035000          -0.11761000           1.07700000         
H                     0.63581000          -0.00562000           0.00519000         
H                     2.09984000           0.83505000           0.60980000         
H                     2.09826000           0.11258000          -1.02878000         
H                     2.10324000          -0.94525000           0.41613000         
9
Image 14 energy:-0.01899 
C                    -1.83141000           0.00042000          -0.00027000         
C                     1.72156000          -0.00008000           0.00021000         
H                    -1.86424000           0.99326000          -0.43354000         
H                    -1.85628000          -0.87540000          -0.64369000         
H                    -1.85741000          -0.12275000           1.07954000         
H                     0.62251000           0.00254000          -0.00124000         
H                     2.09083000           0.83377000           0.61069000         
H                     2.08637000           0.11124000          -1.02809000         
H                     2.08617000          -0.94669000           0.41708000         
9
Image 15 energy:-0.01894 
C                    -1.81639000          -0.00009000           0.00011000         
C                     1.70780000          -0.00003000          -0.00013000         
H                    -1.84284000           0.99694000          -0.43539000         
H                    -1.84503000          -0.87461000          -0.64561000         
H                    -1.84685000          -0.12106000           1.08041000         
H                     0.61004000          -0.00057000           0.00144000         
H                     2.07099000           0.83468000           0.61061000         
H                     2.07310000           0.11198000          -1.02821000         
H                     2.07362000          -0.94595000           0.41703000         
9
Image 16 energy:-0.01887 
C                    -1.80027000          -0.00002000          -0.00009000         
C                     1.69385000           0.00007000           0.00013000         
H                    -1.83558000           0.99428000          -0.43415000         
H                    -1.83541000          -0.87322000          -0.64394000         
H                    -1.83638000          -0.12132000           1.07846000         
H                     0.59420000          -0.00014000           0.00009000         
H                     2.06233000           0.83436000           0.61045000         
H                     2.05803000           0.11164000          -1.02836000         
H                     2.05997000          -0.94624000           0.41698000         
9
Image 17 energy:-0.01878 
C                    -1.78563000           0.00009000           0.00017000         
C                     1.67990000          -0.00009000          -0.00014000         
H                    -1.81876000           0.99637000          -0.43504000         
H                    -1.81797000          -0.87553000          -0.64586000         
H                    -1.82098000          -0.12130000           1.07986000         
H                     0.58240000           0.00021000           0.00112000         
H                     2.04326000           0.83458000           0.61062000         
H                     2.04559000           0.11176000          -1.02825000         
H                     2.04537000          -0.94613000           0.41719000         
9
Image 18 energy:-0.01868 
C                    -1.77004000          -0.00028000          -0.00044000         
C                     1.66605000           0.00017000           0.00027000         
H                    -1.80714000           0.99538000          -0.43383000         
H                    -1.81068000          -0.87212000          -0.64294000         
H                    -1.80614000          -0.12102000           1.08034000         
H                     0.56689000          -0.00100000          -0.00103000         
H                     2.03417000           0.83450000           0.61054000         
H                     2.02953000           0.11161000          -1.02811000         
H                     2.03157000          -0.94609000           0.41715000         
9
Image 19 energy:-0.01855 
C                    -1.75628000           0.00065000           0.00099000         
C                     1.65267000          -0.00036000          -0.00055000         
H                    -1.79340000           0.99308000          -0.43671000         
H                    -1.78587000          -0.87588000          -0.64734000         
H                    -1.79802000          -0.12279000           1.07546000         
H                     0.55444000           0.00184000           0.00317000         
H                     2.01586000           0.83460000           0.61073000         
H                     2.02115000           0.11172000          -1.02802000         
H                     2.01950000          -0.94602000           0.41745000         
9
Image 20 energy:-0.01843 
C                    -1.74249000          -0.00047000          -0.00073000         
C                     1.63966000           0.00025000           0.00040000         
H                    -1.77524000           0.99721000          -0.43277000         
H                    -1.78314000          -0.87285000          -0.64284000         
H                    -1.77102000          -0.12012000           1.08207000         
H                     0.54211000          -0.00214000          -0.00305000         
H                     2.00481000           0.83496000           0.61102000         
H                     2.00305000           0.11176000          -1.02821000         
H                     2.00387000          -0.94626000           0.41770000         
9
Image 21 energy:-0.01828 
C                    -1.72686000           0.00019000           0.00029000         
C                     1.62582000          -0.00011000          -0.00015000         
H                    -1.76528000           0.99393000          -0.43500000         
H                    -1.76169000          -0.87388000          -0.64509000         
H                    -1.76732000          -0.12178000           1.07741000         
H                     0.52648000           0.00102000           0.00180000         
H                     1.99030000           0.83482000           0.61069000         
H                     1.99020000           0.11149000          -1.02877000         
H                     1.99040000          -0.94665000           0.41737000         
9
Image 22 energy:-0.01810 
C                    -1.71163000          -0.00006000          -0.00011000         
C                     1.61162000           0.00003000           0.00007000         
H                    -1.74929000           0.99581000          -0.43441000         
H                    -1.75024000          -0.87404000          -0.64463000         
H                    -1.74885000          -0.12122000           1.07986000         
H                     0.51401000          -0.00025000          -0.00014000         
H                     1.97539000           0.83505000           0.61093000         
H                     1.97461000           0.11161000          -1.02873000         
H                     1.97508000          -0.94666000           0.41762000         
9
Image 23 energy:-0.01789 
C                    -1.69545000           0.00003000           0.00003000         
C                     1.59740000          -0.00002000          -0.00001000         
H                    -1.73795000           0.99458000          -0.43433000         
H                    -1.73742000          -0.87345000          -0.64439000         
H                    -1.73833000          -0.12133000           1.07837000         
H                     0.49819000           0.00016000           0.00049000         
H                     1.96111000           0.83512000           0.61093000         
H                     1.96072000           0.11158000          -1.02889000         
H                     1.96104000          -0.94678000           0.41763000         
9
Image 24 energy:-0.01765 
C                    -1.67977000          -0.00000000          -0.00002000         
C                     1.58310000           0.00000000           0.00002000         
H                    -1.72394000           0.99522000          -0.43444000         
H                    -1.72396000          -0.87382000          -0.64460000         
H                    -1.72403000          -0.12132000           1.07912000         
H                     0.48528000           0.00000000           0.00024000         
H                     1.94615000           0.83525000           0.61103000         
H                     1.94560000           0.11159000          -1.02901000         
H                     1.94599000          -0.94689000           0.41772000         
9
Image 25 energy:-0.01738 
C                    -1.66359000           0.00001000          -0.00000000         
C                     1.56891000          -0.00001000           0.00000000         
H                    -1.71227000           0.99457000          -0.43422000         
H                    -1.71211000          -0.87332000          -0.64426000         
H                    -1.71247000          -0.12128000           1.07839000         
H                     0.46976000           0.00005000           0.00032000         
H                     1.93165000           0.83538000           0.61110000         
H                     1.93121000           0.11160000          -1.02916000         
H                     1.93155000          -0.94702000           0.41778000         
9
Image 26 energy:-0.01707 
C                    -1.64767000           0.00000000          -0.00001000         
C                     1.55459000          -0.00000000           0.00001000         
H                    -1.69935000           0.99477000          -0.43427000         
H                    -1.69929000          -0.87346000          -0.64436000         
H                    -1.69951000          -0.12129000           1.07861000         
H                     0.45669000           0.00002000           0.00027000         
H                     1.91677000           0.83552000           0.61120000         
H                     1.91631000           0.11161000          -1.02932000         
H                     1.91667000          -0.94717000           0.41786000         
9
Image 27 energy:-0.01673 
C                    -1.63143000           0.00001000          -0.00000000         
C                     1.54047000          -0.00000000           0.00001000         
H                    -1.68791000           0.99435000          -0.43410000         
H                    -1.68782000          -0.87310000          -0.64411000         
H                    -1.68808000          -0.12125000           1.07816000         
H                     0.44113000           0.00002000           0.00028000         
H                     1.90207000           0.83567000           0.61130000         
H                     1.90165000           0.11162000          -1.02950000         
H                     1.90199000          -0.94733000           0.41795000         
9
Image 28 energy:-0.01635 
C                    -1.61529000           0.00000000          -0.00001000         
C                     1.52616000          -0.00000000           0.00001000         
H                    -1.67598000           0.99431000          -0.43406000         
H                    -1.67591000          -0.87305000          -0.64407000         
H                    -1.67614000          -0.12125000           1.07811000         
H                     0.42797000           0.00001000           0.00026000         
H                     1.88728000           0.83583000           0.61141000         
H                     1.88687000           0.11163000          -1.02968000         
H                     1.88720000          -0.94749000           0.41803000         
9
Image 29 energy:-0.01593 
C                    -1.59892000           0.00001000          -0.00000000         
C                     1.51214000          -0.00000000           0.00001000         
H                    -1.66515000           0.99397000          -0.43391000         
H                    -1.66508000          -0.87275000          -0.64386000         
H                    -1.66531000          -0.12121000           1.07774000         
H                     0.41208000           0.00001000           0.00025000         
H                     1.87238000           0.83602000           0.61154000         
H                     1.87200000           0.11165000          -1.02991000         
H                     1.87232000          -0.94770000           0.41814000         
9
Image 30 energy:-0.01547 
C                    -1.58258000           0.00001000          -0.00000000         
C                     1.49784000          -0.00000000           0.00001000         
H                    -1.65418000           0.99372000          -0.43380000         
H                    -1.65413000          -0.87252000          -0.64370000         
H                    -1.65435000          -0.12118000           1.07746000         
H                     0.39929000          -0.00000000           0.00024000         
H                     1.85759000           0.83623000           0.61168000         
H                     1.85723000           0.11167000          -1.03015000         
H                     1.85754000          -0.94792000           0.41825000         
9
Image 31 energy:-0.01496 
C                    -1.56605000           0.00001000          -0.00000000         
C                     1.48398000          -0.00000000           0.00001000         
H                    -1.64421000           0.99340000          -0.43365000         
H                    -1.64417000          -0.87224000          -0.64350000         
H                    -1.64438000          -0.12115000           1.07711000         
H                     0.38296000          -0.00000000           0.00023000         
H                     1.84245000           0.83646000           0.61185000         
H                     1.84210000           0.11170000          -1.03043000         
H                     1.84240000          -0.94818000           0.41837000         
9
Image 32 energy:-0.01440 
C                    -1.54951000           0.00000000          -0.00000000         
C                     1.46968000          -0.00000000           0.00001000         
H                    -1.63429000           0.99294000          -0.43344000         
H                    -1.63425000          -0.87183000          -0.64320000         
H                    -1.63445000          -0.12110000           1.07661000         
H                     0.37071000          -0.00001000           0.00022000         
H                     1.82775000           0.83670000           0.61201000         
H                     1.82742000           0.11172000          -1.03071000         
H                     1.82771000          -0.94843000           0.41849000         
9
Image 33 energy:-0.01379 
C                    -1.53280000           0.00000000          -0.00000000         
C                     1.45606000          -0.00000000           0.00000000         
H                    -1.62536000           0.99257000          -0.43328000         
H                    -1.62533000          -0.87150000          -0.64297000         
H                    -1.62552000          -0.12106000           1.07621000         
H                     0.35297000          -0.00001000           0.00021000         
H                     1.81245000           0.83698000           0.61221000         
H                     1.81213000           0.11175000          -1.03105000         
H                     1.81241000          -0.94874000           0.41864000         
9
Image 34 energy:-0.01312 
C                    -1.51610000           0.00000000          -0.00000000         
C                     1.44172000          -0.00000000           0.00000000         
H                    -1.61654000           0.99187000          -0.43296000         
H                    -1.61652000          -0.87087000          -0.64251000         
H                    -1.61670000          -0.12098000           1.07544000         
H                     0.34220000          -0.00001000           0.00020000         
H                     1.79782000           0.83723000           0.61240000         
H                     1.79752000           0.11178000          -1.03136000         
H                     1.79779000          -0.94903000           0.41877000         
9
Image 35 energy:-0.01240 
C                    -1.49920000           0.00000000          -0.00000000         
C                     1.42849000          -0.00000000           0.00000000         
H                    -1.60900000           0.99139000          -0.43275000         
H                    -1.60900000          -0.87045000          -0.64221000         
H                    -1.60916000          -0.12092000           1.07492000         
H                     0.32203000          -0.00001000           0.00019000         
H                     1.78246000           0.83759000           0.61265000         
H                     1.78217000           0.11183000          -1.03179000         
H                     1.78243000          -0.94942000           0.41896000         
9
Image 36 energy:-0.01161 
C                    -1.48230000           0.00000000          -0.00000000         
C                     1.41422000          -0.00000000           0.00000000         
H                    -1.60176000           0.99034000          -0.43229000         
H                    -1.60176000          -0.86952000          -0.64153000         
H                    -1.60192000          -0.12080000           1.07378000         
H                     0.31397000          -0.00001000           0.00019000         
H                     1.76747000           0.83791000           0.61288000         
H                     1.76720000           0.11186000          -1.03218000         
H                     1.76745000          -0.94978000           0.41912000         
9
Image 37 energy:-0.01077 
C                    -1.46512000           0.00000000          -0.00000000         
C                     1.40156000          -0.00000000           0.00000000         
H                    -1.59663000           0.98960000          -0.43196000         
H                    -1.59664000          -0.86887000          -0.64106000         
H                    -1.59679000          -0.12072000           1.07297000         
H                     0.29017000          -0.00001000           0.00018000         
H                     1.75232000           0.83847000           0.61329000         
H                     1.75206000           0.11193000          -1.03286000         
H                     1.75230000          -0.95041000           0.41941000         
9
Image 38 energy:-0.00985 
C                    -1.44774000           0.00000000           0.00000000         
C                     1.38785000          -0.00000000           0.00000000         
H                    -1.59269000           0.98802000          -0.43127000         
H                    -1.59271000          -0.86748000          -0.64004000         
H                    -1.59285000          -0.12053000           1.07126000         
H                     0.28351000          -0.00001000           0.00017000         
H                     1.73604000           0.83906000           0.61371000         
H                     1.73579000           0.11201000          -1.03358000         
H                     1.73602000          -0.95107000           0.41971000         
9
Image 39 energy:-0.00886 
C                    -1.42995000           0.00000000           0.00000000         
C                     1.37578000          -0.00000000           0.00000000         