25
Image 1 energy:-0.00368 
C                     2.38522000           1.27921000          -0.15375000         
C                     1.81127000          -0.00000000           0.40692000         
C                     2.38523000          -1.27921000          -0.15374000         
C                     0.84228000          -0.00000000           1.33675000         
C                    -1.73684000           0.00000000          -0.25874000         
C                    -1.46075000          -1.28897000          -0.96949000         
C                    -2.67918000          -0.00007000           0.90586000         
C                    -1.46082000           1.28905000          -0.96938000         
H                     2.25515000           1.32526000          -1.24849000         
H                     3.47109000           1.34190000           0.03258000         
H                     1.90942000           2.16694000           0.28367000         
H                     2.25516000          -1.32528000          -1.24848000         
H                     1.90945000          -2.16695000           0.28369000         
H                     3.47110000          -1.34189000           0.03259000         
H                     0.43435000           0.92785000           1.74044000         
H                     0.43435000          -0.92786000           1.74045000         
H                    -0.52693000          -1.23510000          -1.55079000         
H                    -2.26747000          -1.55767000          -1.68530000         
H                    -1.37451000          -2.13061000          -0.26388000         
H                    -3.74398000          -0.00008000           0.58705000         
H                    -2.54344000           0.89207000           1.53824000         
H                    -2.54340000          -0.89227000           1.53816000         
H                    -0.52699000           1.23528000          -1.55068000         
H                    -1.37463000           2.13064000          -0.26370000         
H                    -2.26755000           1.55776000          -1.68517000         
25
Image 2 energy:-0.00357 
C                     2.38527000           1.27882000          -0.15271000         
C                     1.81423000          -0.00000000           0.41508000         
C                     2.38529000          -1.27882000          -0.15270000         
C                     0.84201000          -0.00001000           1.33524000         
C                    -1.73441000           0.00000000          -0.25816000         
C                    -1.46062000          -1.28844000          -0.97104000         
C                    -2.68237000          -0.00007000           0.90315000         
C                    -1.46068000           1.28852000          -0.97093000         
H                     2.19473000           1.34978000          -1.24031000         
H                     3.48300000           1.31444000          -0.02583000         
H                     1.95415000           2.16852000           0.32734000         
H                     2.19476000          -1.34978000          -1.24030000         
H                     1.95416000          -2.16853000           0.32734000         
H                     3.48301000          -1.31443000          -0.02581000         
H                     0.43347000           0.92747000           1.73919000         
H                     0.43348000          -0.92749000           1.73919000         
H                    -0.51565000          -1.24269000          -1.53614000         
H                    -2.25777000          -1.54268000          -1.70333000         
H                    -1.39671000          -2.13419000          -0.26802000         
H                    -3.74666000          -0.00009000           0.57955000         
H                    -2.54993000           0.89215000           1.53638000         
H                    -2.54989000          -0.89234000           1.53630000         
H                    -0.51571000           1.24286000          -1.53603000         
H                    -1.39683000           2.13422000          -0.26784000         
H                    -2.25784000           1.54277000          -1.70320000         
25
Image 3 energy:-0.00365 
C                     2.37519000           1.27923000          -0.15450000         
C                     1.80254000          -0.00000000           0.40324000         
C                     2.37520000          -1.27923000          -0.15450000         
C                     0.84104000          -0.00001000           1.34628000         
C                    -1.72840000           0.00000000          -0.25922000         
C                    -1.45354000          -1.28857000          -0.97061000         
C                    -2.67206000          -0.00007000           0.90352000         
C                    -1.45360000           1.28865000          -0.97050000         
H                     2.24628000           1.32736000          -1.24738000         
H                     3.45989000           1.34061000           0.03202000         
H                     1.89906000           2.16633000           0.28481000         
H                     2.24630000          -1.32736000          -1.24738000         
H                     1.89907000          -2.16633000           0.28481000         
H                     3.45990000          -1.34060000           0.03203000         
H                     0.43657000           0.92828000           1.75192000         
H                     0.43658000          -0.92830000           1.75192000         
H                    -0.52207000          -1.23427000          -1.55515000         
H                    -2.26256000          -1.55717000          -1.68345000         
H                    -1.36548000          -2.13045000          -0.26566000         
H                    -3.73585000          -0.00008000           0.58252000         
H                    -2.53790000           0.89212000           1.53586000         
H                    -2.53786000          -0.89231000           1.53578000         
H                    -0.52213000           1.23444000          -1.55504000         
H                    -1.36560000           2.13047000          -0.26548000         
H                    -2.26264000           1.55726000          -1.68333000         
25
Image 4 energy:-0.00359 
C                     2.35812000           1.27832000          -0.15868000         
C                     1.79289000          -0.00000000           0.41433000         
C                     2.35813000          -1.27832000          -0.15868000         
C                     0.82778000          -0.00001000           1.34584000         
C                    -1.71722000           0.00000000          -0.26207000         
C                    -1.43991000          -1.28912000          -0.97072000         
C                    -2.65400000          -0.00007000           0.90753000         
C                    -1.43998000           1.28919000          -0.97062000         
H                     2.23418000           1.30199000          -1.25740000         
H                     3.44387000           1.36045000           0.03315000         
H                     1.86567000           2.16756000           0.25726000         
H                     2.23420000          -1.30199000          -1.25740000         
H                     1.86568000          -2.16756000           0.25726000         
H                     3.44388000          -1.36044000           0.03316000         
H                     0.42539000           0.92757000           1.75506000         
H                     0.42540000          -0.92759000           1.75506000         
H                    -0.50866000          -1.23304000          -1.55411000         
H                    -2.24702000          -1.56163000          -1.68271000         
H                    -1.34960000          -2.12945000          -0.26376000         
H                    -3.72098000          -0.00008000           0.59658000         
H                    -2.51418000           0.89191000           1.53934000         
H                    -2.51414000          -0.89210000           1.53927000         
H                    -0.50872000           1.23321000          -1.55401000         
H                    -1.34972000           2.12948000          -0.26359000         
H                    -2.24710000           1.56172000          -1.68259000         
25
Image 5 energy:-0.00361 
C                     2.34157000           1.27888000          -0.16049000         
C                     1.77476000          -0.00000000           0.40636000         
C                     2.34159000          -1.27888000          -0.16049000         
C                     0.81550000          -0.00001000           1.34820000         
C                    -1.70245000           0.00000000          -0.25849000         
C                    -1.42310000          -1.28845000          -0.96893000         
C                    -2.64035000          -0.00007000           0.90847000         
C                    -1.42316000           1.28852000          -0.96883000         
H                     2.18509000           1.33064000          -1.24836000         
H                     3.42936000           1.33436000          -0.00194000         
H                     1.88365000           2.16739000           0.29185000         
H                     2.18511000          -1.33063000          -1.24836000         
H                     1.88367000          -2.16739000           0.29185000         
H                     3.42937000          -1.33435000          -0.00194000         
H                     0.40936000           0.92783000           1.75292000         
H                     0.40937000          -0.92785000           1.75292000         
H                    -0.48527000          -1.23516000          -1.54343000         
H                    -2.22483000          -1.55421000          -1.69136000         
H                    -1.34355000          -2.13205000          -0.26467000         
H                    -3.70568000          -0.00008000           0.59293000         
H                    -2.50315000           0.89207000           1.54040000         
H                    -2.50311000          -0.89225000           1.54032000         
H                    -0.48532000           1.23533000          -1.54332000         
H                    -1.34367000           2.13207000          -0.26449000         
H                    -2.22490000           1.55430000          -1.69124000         
25
Image 6 energy:-0.00349 
C                     2.32793000           1.27897000          -0.16075000         
C                     1.76308000          -0.00000000           0.40856000         
C                     2.32795000          -1.27897000          -0.16075000         
C                     0.79016000          -0.00001000           1.33537000         
C                    -1.68105000           0.00000000          -0.25301000         
C                    -1.41004000          -1.28752000          -0.96711000         
C                    -2.62179000          -0.00007000           0.91260000         
C                    -1.41011000           1.28760000          -0.96700000         
H                     2.14455000           1.34041000          -1.25108000         
H                     3.42604000           1.32703000          -0.02721000         
H                     1.88128000           2.16703000           0.31047000         
H                     2.14456000          -1.34041000          -1.25108000         
H                     1.88130000          -2.16703000           0.31047000         
H                     3.42605000          -1.32701000          -0.02721000         
H                     0.38537000           0.92769000           1.74186000         
H                     0.38538000          -0.92771000           1.74186000         
H                    -0.47406000          -1.23627000          -1.54283000         
H                    -2.21341000          -1.54614000          -1.68815000         
H                    -1.33403000          -2.13329000          -0.26564000         
H                    -3.68627000          -0.00008000           0.59524000         
H                    -2.48531000           0.89204000           1.54423000         
H                    -2.48527000          -0.89223000           1.54416000         
H                    -0.47412000           1.23644000          -1.54272000         
H                    -1.33414000           2.13331000          -0.26547000         
H                    -2.21348000           1.54623000          -1.68803000         
25
Image 7 energy:-0.00345 
C                     2.31575000           1.27947000          -0.16226000         
C                     1.74273000          -0.00000000           0.39710000         
C                     2.31576000          -1.27947000          -0.16226000         
C                     0.76963000          -0.00001000           1.32750000         
C                    -1.67076000           0.00000000          -0.25112000         
C                    -1.39449000          -1.28774000          -0.96303000         
C                    -2.60397000          -0.00007000           0.92007000         
C                    -1.39456000           1.28781000          -0.96292000         
H                     2.17600000           1.33168000          -1.25417000         
H                     3.40246000           1.33809000           0.01353000         
H                     1.84806000           2.16670000           0.28234000         
H                     2.17601000          -1.33167000          -1.25417000         
H                     1.84808000          -2.16670000           0.28234000         
H                     3.40247000          -1.33808000           0.01353000         
H                     0.36501000           0.92752000           1.73276000         
H                     0.36502000          -0.92753000           1.73276000         
H                    -0.45660000          -1.23473000          -1.53679000         
H                    -2.19553000          -1.55125000          -1.68669000         
H                    -1.31700000          -2.13209000          -0.25997000         
H                    -3.67200000          -0.00008000           0.61158000         
H                    -2.46301000           0.89200000           1.55118000         
H                    -2.46297000          -0.89218000           1.55111000         
H                    -0.45666000           1.23489000          -1.53668000         
H                    -1.31711000           2.13211000          -0.25980000         
H                    -2.19560000           1.55134000          -1.68656000         
25
Image 8 energy:-0.00326 
C                     2.30280000           1.27933000          -0.16195000         
C                     1.72304000          -0.00000000           0.39130000         
C                     2.30281000          -1.27932000          -0.16195000         
C                     0.74408000          -0.00001000           1.31013000         
C                    -1.65336000          -0.00000000          -0.24594000         
C                    -1.37854000          -1.28758000          -0.95839000         
C                    -2.58406000          -0.00007000           0.92635000         
C                    -1.37860000           1.28765000          -0.95829000         
H                     2.16880000           1.33688000          -1.25693000         
H                     3.39084000           1.33137000           0.02058000         
H                     1.83464000           2.16696000           0.28620000         
H                     2.16881000          -1.33687000          -1.25693000         
H                     1.83465000          -2.16696000           0.28620000         
H                     3.39085000          -1.33136000           0.02057000         
H                     0.33347000           0.92841000           1.71361000         
H                     0.33348000          -0.92843000           1.71361000         
H                    -0.44244000          -1.23588000          -1.53606000         
H                    -2.18382000          -1.54781000          -1.67758000         
H                    -1.29816000          -2.13249000          -0.25608000         
H                    -3.64966000          -0.00008000           0.61429000         
H                    -2.44388000           0.89197000           1.55793000         
H                    -2.44384000          -0.89216000           1.55785000         
H                    -0.44249000           1.23605000          -1.53595000         
H                    -1.29827000           2.13251000          -0.25590000         
H                    -2.18390000           1.54790000          -1.67746000         
25
Image 9 energy:-0.00280 
C                     2.29996000           1.27919000          -0.16059000         
C                     1.71545000          -0.00000000           0.38560000         
C                     2.29997000          -1.27919000          -0.16059000         
C                     0.70826000          -0.00000000           1.28794000         
C                    -1.63217000          -0.00000000          -0.23449000         
C                    -1.37172000          -1.28764000          -0.95556000         
C                    -2.57390000          -0.00007000           0.93147000         
C                    -1.37178000           1.28771000          -0.95545000         
H                     2.18690000           1.32887000          -1.25885000         
H                     3.38667000           1.34137000           0.03771000         
H                     1.82082000           2.16785000           0.27262000         
H                     2.18691000          -1.32887000          -1.25885000         
H                     1.82084000          -2.16785000           0.27262000         
H                     3.38668000          -1.34135000           0.03771000         
H                     0.33470000           0.92547000           1.71589000         
H                     0.33471000          -0.92548000           1.71588000         
H                    -0.44081000          -1.23466000          -1.53916000         
H                    -2.18058000          -1.55139000          -1.67214000         
H                    -1.29118000          -2.13241000          -0.25381000         
H                    -3.64351000          -0.00008000           0.62459000         
H                    -2.43572000           0.89233000           1.56179000         
H                    -2.43568000          -0.89252000           1.56172000         
H                    -0.44087000           1.23483000          -1.53905000         
H                    -1.29129000           2.13243000          -0.25364000         
H                    -2.18065000           1.55148000          -1.67202000         
25
Image 10 energy:-0.00279 
C                     2.28800000           1.28044000          -0.16004000         
C                     1.69816000          -0.00000000           0.37855000         
C                     2.28801000          -1.28044000          -0.16004000         
C                     0.69813000          -0.00000000           1.27571000         
C                    -1.62297000          -0.00000000          -0.23283000         
C                    -1.35813000          -1.28623000          -0.95024000         
C                    -2.55489000          -0.00007000           0.93839000         
C                    -1.35819000           1.28630000          -0.95014000         
H                     2.20665000           1.32575000          -1.25944000         
H                     3.36423000           1.35024000           0.07422000         
H                     1.78804000           2.16587000           0.25501000         
H                     2.20667000          -1.32575000          -1.25944000         
H                     1.78805000          -2.16587000           0.25501000         
H                     3.36424000          -1.35023000           0.07422000         
H                     0.27724000           0.92828000           1.66877000         
H                     0.27725000          -0.92830000           1.66876000         
H                    -0.42990000          -1.23426000          -1.53871000         
H                    -2.17291000          -1.54058000          -1.65926000         
H                    -1.27266000          -2.13359000          -0.25183000         
H                    -3.61910000          -0.00008000           0.62308000         
H                    -2.41609000           0.89194000           1.56985000         
H                    -2.41606000          -0.89213000           1.56977000         
H                    -0.42996000           1.23443000          -1.53860000         
H                    -1.27278000           2.13361000          -0.25166000         
H                    -2.17298000           1.54067000          -1.65913000         
25
Image 11 energy:-0.00243 
C                     2.27996000           1.28019000          -0.15957000         
C                     1.68421000          -0.00000000           0.37210000         
C                     2.27997000          -1.28019000          -0.15958000         
C                     0.66196000          -0.00000000           1.25191000         
C                    -1.59831000          -0.00000000          -0.22018000         
C                    -1.34549000          -1.28626000          -0.94567000         
C                    -2.54173000          -0.00007000           0.94376000         
C                    -1.34556000           1.28633000          -0.94556000         
H                     2.20868000           1.32581000          -1.26049000         
H                     3.35532000           1.35074000           0.08256000         
H                     1.77698000           2.16617000           0.25065000         
H                     2.20869000          -1.32580000          -1.26050000         
H                     1.77699000          -2.16617000           0.25065000         
H                     3.35533000          -1.35073000           0.08257000         
H                     0.26151000           0.92656000           1.65995000         
H                     0.26151000          -0.92657000           1.65994000         
H                    -0.41776000          -1.23572000          -1.53570000         
H                    -2.16272000          -1.53915000          -1.65495000         
H                    -1.26015000          -2.13489000          -0.24862000         
H                    -3.60686000          -0.00008000           0.62678000         
H                    -2.40490000           0.89172000           1.57613000         
H                    -2.40486000          -0.89192000           1.57605000         
H                    -0.41781000           1.23589000          -1.53559000         
H                    -1.26026000           2.13491000          -0.24844000         
H                    -2.16279000           1.53924000          -1.65482000         
25
Image 12 energy:-0.00195 
C                     2.27081000           1.28064000          -0.15783000         
C                     1.66793000          -0.00000000           0.36393000         
C                     2.27081000          -1.28064000          -0.15783000         
C                     0.63510000          -0.00000000           1.22981000         
C                    -1.57170000          -0.00000000          -0.20717000         
C                    -1.33438000          -1.28437000          -0.94066000         
C                    -2.52541000          -0.00007000           0.94810000         
C                    -1.33445000           1.28444000          -0.94056000         
H                     2.21972000           1.32789000          -1.25949000         
H                     3.34096000           1.35217000           0.10464000         
H                     1.75953000           2.16563000           0.24418000         
H                     2.21973000          -1.32788000          -1.25949000         
H                     1.75954000          -2.16563000           0.24417000         
H                     3.34097000          -1.35216000           0.10464000         
H                     0.22805000           0.92722000           1.63406000         
H                     0.22806000          -0.92723000           1.63405000         
H                    -0.41368000          -1.23891000          -1.54148000         
H                    -2.16356000          -1.52118000          -1.64046000         
H                    -1.25002000          -2.13875000          -0.25064000         
H                    -3.58449000          -0.00008000           0.61350000         
H                    -2.39724000           0.89184000           1.58199000         
H                    -2.39720000          -0.89204000           1.58191000         
H                    -0.41374000           1.23908000          -1.54138000         
H                    -1.25013000           2.13877000          -0.25047000         
H                    -2.16363000           1.52126000          -1.64034000         
25
Image 13 energy:-0.00138 
C                     2.26334000           1.28051000          -0.15625000         
C                     1.65345000          -0.00000000           0.35649000         
C                     2.26335000          -1.28051000          -0.15626000         
C                     0.60262000          -0.00000000           1.20526000         
C                    -1.54249000          -0.00000000          -0.19178000         
C                    -1.32397000          -1.28284000          -0.93582000         
C                    -2.51206000          -0.00007000           0.95143000         
C                    -1.32404000           1.28291000          -0.93571000         
H                     2.22420000           1.33114000          -1.25847000         
H                     3.33109000           1.35015000           0.11708000         
H                     1.74961000           2.16564000           0.24235000         
H                     2.22421000          -1.33113000          -1.25847000         
H                     1.74962000          -2.16564000           0.24234000         
H                     3.33110000          -1.35014000           0.11708000         
H                     0.20616000           0.92683000           1.61921000         
H                     0.20617000          -0.92684000           1.61920000         
H                    -0.40789000          -1.24267000          -1.54393000         
H                    -2.16217000          -1.50564000          -1.62992000         
H                    -1.24273000          -2.14236000          -0.25187000         
H                    -3.56642000          -0.00008000           0.60134000         
H                    -2.39243000           0.89184000           1.58697000         
H                    -2.39239000          -0.89204000           1.58689000         
H                    -0.40795000           1.24284000          -1.54383000         
H                    -1.24284000           2.14238000          -0.25169000         
H                    -2.16224000           1.50573000          -1.62980000         
25
Image 14 energy:-0.00077 
C                     2.25691000           1.28011000          -0.15441000         
C                     1.63988000          -0.00000000           0.34956000         
C                     2.25692000          -1.28010000          -0.15441000         
C                     0.57143000          -0.00000000           1.18035000         
C                    -1.51169000          -0.00000000          -0.17539000         
C                    -1.31541000          -1.28060000          -0.93094000         
C                    -2.49927000          -0.00007000           0.95354000         
C                    -1.31548000           1.28067000          -0.93084000         
H                     2.22883000           1.33498000          -1.25690000         
H                     3.32229000           1.34656000           0.12916000         
H                     1.74182000           2.16558000           0.24186000         
H                     2.22884000          -1.33497000          -1.25690000         
H                     1.74183000          -2.16558000           0.24186000         
H                     3.32230000          -1.34655000           0.12916000         
H                     0.18467000           0.92700000           1.60546000         
H                     0.18467000          -0.92701000           1.60546000         
H                    -0.40569000          -1.24716000          -1.54864000         
H                    -2.16516000          -1.48427000          -1.61656000         
H                    -1.23844000          -2.14653000          -0.25480000         
H                    -3.54610000          -0.00008000           0.58211000         
H                    -2.39098000           0.89191000           1.59085000         
H                    -2.39094000          -0.89211000           1.59077000         
H                    -0.40575000           1.24733000          -1.54853000         
H                    -1.23855000           2.14655000          -0.25463000         
H                    -2.16523000           1.48436000          -1.61644000         
25
Image 15 energy:-0.00024 
C                     2.25222000           1.27947000          -0.15292000         
C                     1.62928000          -0.00000000           0.34391000         