10
Image 1 energy:-0.04614 
C                     1.25533000          -0.41578000          -0.00679000         
C                     0.12273000           0.56017000           0.00415000         
C                    -1.26999000          -0.12669000           0.00100000         
H                     1.57179000          -0.90272000           0.91865000         
H                     1.60020000          -0.85194000          -0.94141000         
H                     0.20375000           1.23979000          -0.87010000         
H                     0.19336000           1.20920000           0.90225000         
H                    -1.36812000          -0.82398000          -0.84774000         
H                    -1.40972000          -0.69963000           0.92841000         
H                    -2.07795000           0.61844000          -0.07046000         
10
Image 2 energy:-0.04619 
C                     1.24448000          -0.41653000           0.00195000         
C                     0.12681000           0.57008000          -0.00352000         
C                    -1.26020000          -0.12968000           0.00124000         
H                     1.56614000          -0.88260000           0.93689000         
H                     1.55715000          -0.90618000          -0.92599000         
H                     0.17806000           1.21283000          -0.89060000         
H                     0.18850000           1.22386000           0.87778000         
H                    -1.37122000          -0.74671000          -0.89680000         
H                    -1.36364000          -0.79124000           0.87625000         
H                    -2.07775000           0.60586000           0.02647000         
10
Image 3 energy:-0.04606 
C                     1.26426000          -0.41737000           0.00598000         
C                     0.12255000           0.54799000          -0.00549000         
C                    -1.28094000          -0.12022000           0.00068000         
H                     1.64222000          -0.81505000           0.94229000         
H                     1.62677000          -0.85710000          -0.91943000         
H                     0.19785000           1.19568000          -0.90386000         
H                     0.18676000           1.21966000           0.86524000         
H                    -1.46034000          -0.70681000          -0.92095000         
H                    -1.37867000          -0.80187000           0.85398000         
H                    -2.07519000           0.64166000           0.06884000         
10
Image 4 energy:-0.04496 
C                     1.25772000          -0.42254000          -0.00094000         
C                     0.11941000           0.54205000          -0.00106000         
C                    -1.28219000          -0.11940000           0.00063000         
H                     1.70873000          -0.78062000           0.93535000         
H                     1.68093000          -0.80707000          -0.93016000         
H                     0.16515000           1.18593000          -0.87872000         
H                     0.22020000           1.22347000           0.89418000         
H                    -1.39344000          -0.73237000          -0.89384000         
H                    -1.46722000          -0.76298000           0.88564000         
H                    -2.04476000           0.67234000           0.00393000         
10
Image 5 energy:-0.04530 
C                     1.25270000          -0.42104000          -0.00493000         
C                     0.13362000           0.55356000           0.00298000         
C                    -1.28334000          -0.12406000           0.00186000         
H                     1.65647000          -0.83832000           0.92359000         
H                     1.67182000          -0.80410000          -0.94212000         
H                     0.20137000           1.22005000          -0.87551000         
H                     0.14476000           1.17106000           0.89239000         
H                    -1.40158000          -0.79566000          -0.86128000         
H                    -1.41574000          -0.70230000           0.91869000         
H                    -2.08326000           0.64859000          -0.05464000         
10
Image 6 energy:-0.04617 
C                     1.25017000          -0.41554000          -0.00548000         
C                     0.12126000           0.56538000           0.00762000         
C                    -1.26131000          -0.12881000          -0.00124000         
H                     1.56979000          -0.90055000           0.91680000         
H                     1.56113000          -0.87828000          -0.94335000         
H                     0.18817000           1.22974000          -0.87403000         
H                     0.20414000           1.22076000           0.89742000         
H                    -1.35610000          -0.81287000          -0.85979000         
H                    -1.40968000          -0.72161000           0.91609000         
H                    -2.06865000           0.61231000          -0.06381000         
10
Image 7 energy:-0.04516 
C                     1.24246000          -0.41845000          -0.00152000         
C                     0.13856000           0.58397000           0.00022000         
C                    -1.26371000          -0.13381000           0.00116000         
H                     1.50633000          -0.93370000           0.92766000         
H                     1.53683000          -0.90462000          -0.93476000         
H                     0.18320000           1.22666000          -0.87951000         
H                     0.20600000           1.23959000           0.88763000         
H                    -1.32366000          -0.78847000          -0.87672000         
H                    -1.36077000          -0.77238000           0.89216000         
H                    -2.14471000           0.55536000          -0.01482000         
10
Image 8 energy:-0.04530 
C                     1.22653000          -0.42349000          -0.00062000         
C                     0.13005000           0.58352000          -0.00619000         
C                    -1.25035000          -0.13759000           0.00683000         
H                     1.52660000          -0.90198000           0.93342000         
H                     1.57953000          -0.86604000          -0.93274000         
H                     0.22294000           1.25235000          -0.88971000         
H                     0.17184000           1.22155000           0.87772000         
H                    -1.32609000          -0.77885000          -0.88461000         
H                    -1.37889000          -0.79577000           0.89359000         
H                    -2.06082000           0.60160000           0.00210000         
10
Image 9 energy:-0.04586 
C                     1.24130000          -0.42164000          -0.00042000         
C                     0.12238000           0.56088000           0.00407000         
C                    -1.26303000          -0.12468000          -0.00382000         
H                     1.61258000          -0.85195000           0.93084000         
H                     1.60375000          -0.85384000          -0.93403000         
H                     0.17601000           1.20769000          -0.88014000         
H                     0.19646000           1.22099000           0.89041000         
H                    -1.37713000          -0.77542000          -0.89128000         
H                    -1.33575000          -0.74701000           0.89377000         
H                    -2.07434000           0.62624000          -0.00753000         
10
Image 10 energy:-0.04603 
C                     1.26990000          -0.41307000          -0.00032000         
C                     0.12263000           0.54294000          -0.00117000         
C                    -1.28348000          -0.11721000           0.00204000         
H                     1.63673000          -0.84728000           0.93064000         
H                     1.63693000          -0.84763000          -0.93097000         
H                     0.18133000           1.19685000          -0.88714000         
H                     0.17395000           1.19199000           0.88287000         
H                    -1.40457000          -0.73853000          -0.88864000         
H                    -1.44052000          -0.75311000           0.88765000         
H                    -2.08230000           0.64699000          -0.00099000         
10
Image 11 energy:-0.04424 
C                     1.26026000          -0.41375000           0.00012000         
C                     0.14340000           0.56840000           0.00308000         
C                    -1.28331000          -0.13396000          -0.00344000         
H                     1.61373000          -0.86386000           0.92881000         
H                     1.59896000          -0.87057000          -0.93079000         
H                     0.16939000           1.19684000          -0.87772000         
H                     0.19344000           1.20897000           0.88560000         
H                    -1.48926000          -0.78311000          -0.88282000         
H                    -1.46040000          -0.76776000           0.88293000         
H                    -2.05891000           0.63314000          -0.00316000         
10
Image 12 energy:-0.04576 
C                     1.24921000          -0.41835000          -0.00015000         
C                     0.11973000           0.55646000          -0.00065000         
C                    -1.26591000          -0.12424000           0.00082000         
H                     1.59144000          -0.86368000           0.93295000         
H                     1.59929000          -0.85845000          -0.93298000         
H                     0.21567000           1.23399000          -0.88608000         
H                     0.20784000           1.22993000           0.88478000         
H                    -1.37074000          -0.76533000          -0.88838000         
H                    -1.37721000          -0.76765000           0.88910000         
H                    -2.09299000           0.62612000           0.00027000         
10
Image 13 energy:-0.04157 
C                     1.25496000          -0.41652000          -0.00010000         
C                     0.13161000           0.55062000          -0.00061000         
C                    -1.29904000          -0.12921000           0.00083000         
H                     1.61869000          -0.83897000           0.93443000         
H                     1.62349000          -0.83578000          -0.93458000         
H                     0.18257000           1.20564000          -0.88216000         
H                     0.17308000           1.19995000           0.88000000         
H                    -1.31954000          -0.73352000          -0.89399000         
H                    -1.32692000          -0.73703000           0.89432000         
H                    -1.99360000           0.68150000           0.00047000         
10
Image 14 energy:-0.04598 
C                     1.27464000          -0.41237000          -0.00004000         
C                     0.12062000           0.53490000           0.00034000         
C                    -1.28871000          -0.11589000          -0.00030000         
H                     1.66155000          -0.82646000           0.93186000         
H                     1.66056000          -0.82649000          -0.93223000         
H                     0.18530000           1.19151000          -0.87944000         
H                     0.18719000           1.19215000           0.88069000         
H                    -1.44690000          -0.74102000          -0.88883000         
H                    -1.44595000          -0.74077000           0.88820000         
H                    -2.07046000           0.67211000          -0.00021000         
10
Image 15 energy:-0.04474 
C                     1.31325000          -0.40391000          -0.00006000         
C                     0.12403000           0.51752000           0.00015000         
C                    -1.32943000          -0.10955000          -0.00008000         
H                     1.69836000          -0.82384000           0.93089000         
H                     1.69878000          -0.82296000          -0.93124000         
H                     0.19099000           1.17709000          -0.88064000         
H                     0.19045000           1.17632000           0.88127000         
H                    -1.49624000          -0.72938000          -0.88986000         
H                    -1.49676000          -0.72944000           0.88963000         
H                    -2.06974000           0.70391000          -0.00023000         
10
Image 16 energy:-0.04079 
C                     1.33407000          -0.40103000          -0.00005000         
C                     0.15793000           0.52774000           0.00018000         
C                    -1.37748000          -0.12037000          -0.00012000         
H                     1.70819000          -0.83159000           0.93036000         
H                     1.70840000          -0.83084000          -0.93072000         
H                     0.20653000           1.18071000          -0.88514000         
H                     0.20653000           1.18019000           0.88597000         
H                    -1.54307000          -0.73911000          -0.89309000         
H                    -1.54335000          -0.73906000           0.89281000         
H                    -2.10683000           0.70415000          -0.00027000         
10
Image 17 energy:-0.03399 
C                     1.34659000          -0.39935000          -0.00005000         
C                     0.19741000           0.54230000           0.00018000         
C                    -1.42474000          -0.13507000          -0.00012000         
H                     1.71205000          -0.83699000           0.93016000         
H                     1.71230000          -0.83623000          -0.93052000         
H                     0.22202000           1.18777000          -0.89132000         
H                     0.22182000           1.18713000           0.89210000         
H                    -1.57572000          -0.74951000          -0.89743000         
H                    -1.57608000          -0.74946000           0.89717000         
H                    -2.13636000           0.70344000          -0.00028000         
10
Image 18 energy:-0.02585 
C                     1.35502000          -0.39758000          -0.00005000         
C                     0.24002000           0.55765000           0.00019000         
C                    -1.47072000          -0.15046000          -0.00013000         
H                     1.71411000          -0.84021000           0.92996000         
H                     1.71434000          -0.83946000          -0.93033000         
H                     0.23100000           1.19141000          -0.89808000         
H                     0.23089000           1.19080000           0.89892000         
H                    -1.60367000          -0.76014000          -0.90251000         
H                    -1.60397000          -0.76006000           0.90225000         
H                    -2.16292000           0.70321000          -0.00029000         
10
Image 19 energy:-0.01783 
C                     1.36099000          -0.39514000          -0.00005000         
C                     0.28444000           0.57230000           0.00020000         
C                    -1.51635000          -0.16593000          -0.00014000         
H                     1.71546000          -0.84159000           0.92967000         
H                     1.71571000          -0.84083000          -0.93004000         
H                     0.23568000           1.19229000          -0.90546000         
H                     0.23548000           1.19162000           0.90627000         
H                    -1.62672000          -0.76952000          -0.90752000         
H                    -1.62705000          -0.76943000           0.90727000         
H                    -2.18554000           0.70376000          -0.00030000         
10
Image 20 energy:-0.01098 
C                     1.36504000          -0.39206000          -0.00005000         
C                     0.33051000           0.58628000           0.00021000         
C                    -1.56120000          -0.18080000          -0.00015000         
H                     1.71693000          -0.84133000           0.92926000         
H                     1.71718000          -0.84057000          -0.92963000         
H                     0.23359000           1.18742000          -0.91224000         
H                     0.23344000           1.18677000           0.91309000         
H                    -1.64671000          -0.77831000          -0.91267000         
H                    -1.64700000          -0.77819000           0.91242000         
H                    -2.20708000           0.70442000          -0.00031000         
10
Image 21 energy:-0.00557 
C                     1.36842000          -0.38900000          -0.00005000         
C                     0.37677000           0.60021000           0.00021000         
C                    -1.60626000          -0.19547000          -0.00015000         
H                     1.71929000          -0.84028000           0.92885000         
H                     1.71961000          -0.83948000          -0.92922000         
H                     0.22883000           1.17922000          -0.91777000         
H                     0.22857000           1.17849000           0.91859000         
H                    -1.66184000          -0.78544000          -0.91775000         
H                    -1.66215000          -0.78530000           0.91753000         
H                    -2.22665000           0.70539000          -0.00032000         
10
Image 22 energy:-0.00207 
C                     1.37307000          -0.38657000          -0.00005000         
C                     0.42210000           0.61484000           0.00021000         
C                    -1.65190000          -0.20976000          -0.00016000         
H                     1.72357000          -0.83938000           0.92853000         
H                     1.72397000          -0.83851000          -0.92889000         
H                     0.22402000           1.16812000          -0.92126000         
H                     0.22380000           1.16740000           0.92212000         
H                    -1.67641000          -0.79178000          -0.92250000         
H                    -1.67662000          -0.79158000           0.92229000         
H                    -2.24822000           0.70531000          -0.00032000         
10
Image 23 energy:-0.00041 
C                     1.38093000          -0.38512000          -0.00005000         
C                     0.46472000           0.63003000           0.00018000         
C                    -1.69949000          -0.22413000          -0.00014000         
H                     1.72994000          -0.83990000           0.92835000         
H                     1.73078000          -0.83872000          -0.92870000         
H                     0.22757000           1.16103000          -0.92314000         
H                     0.22674000           1.16001000           0.92388000         
H                    -1.69157000          -0.79705000          -0.92643000         
H                    -1.69180000          -0.79682000           0.92631000         
H                    -2.27195000           0.70416000          -0.00032000         
10
Image 24 energy:0.00000 
C                     1.39148000          -0.38403000          -0.00005000         
C                     0.50505000           0.64490000           0.00018000         
C                    -1.74857000          -0.23847000          -0.00013000         
H                     1.73808000          -0.84127000           0.92822000         
H                     1.73904000          -0.84003000          -0.92856000         
H                     0.23871000           1.15852000          -0.92419000         
H                     0.23773000           1.15741000           0.92490000         
H                    -1.70842000          -0.80178000          -0.92979000         
H                    -1.70868000          -0.80155000           0.92968000         
H                    -2.29817000           0.70200000          -0.00032000         
10
Image 25 energy:-0.00024 
C                     1.40202000          -0.38294000          -0.00005000         
C                     0.54538000           0.65977000           0.00018000         
C                    -1.79764000          -0.25281000          -0.00013000         
H                     1.74621000          -0.84264000           0.92809000         
H                     1.74730000          -0.84134000          -0.92843000         
H                     0.24986000           1.15602000          -0.92525000         
H                     0.24873000           1.15481000           0.92591000         
H                    -1.72527000          -0.80652000          -0.93314000         
H                    -1.72557000          -0.80629000           0.93305000         
H                    -2.32439000           0.69985000          -0.00033000         
10
Image 26 energy:-0.00072 
C                     1.41613000          -0.38190000          -0.00005000         
C                     0.58214000           0.67324000           0.00022000         
C                    -1.84747000          -0.26629000          -0.00016000         
H                     1.75800000          -0.84401000           0.92793000         
H                     1.75865000          -0.84306000          -0.92827000         
H                     0.26928000           1.15795000          -0.92551000         
H                     0.26866000           1.15700000           0.92620000         
H                    -1.74702000          -0.81102000          -0.93557000         
H                    -1.74739000          -0.81088000           0.93538000         
H                    -2.35568000           0.69581000          -0.00034000         
10
Image 27 energy:-0.00124 
C                     1.43392000          -0.38053000          -0.00005000         
C                     0.61516000           0.68451000           0.00024000         
C                    -1.89782000          -0.27875000          -0.00018000         
H                     1.77340000          -0.84501000           0.92777000         
H                     1.77375000          -0.84425000          -0.92812000         
H                     0.29669000           1.16460000          -0.92537000         
H                     0.29634000           1.16383000           0.92613000         
H                    -1.77507000          -0.81529000          -0.93692000         
H                    -1.77545000          -0.81519000           0.93667000         
H                    -2.39072000           0.69083000          -0.00032000         
10
Image 28 energy:-0.00169 
C                     1.45295000          -0.37833000          -0.00005000         
C                     0.64809000           0.69437000           0.00025000         
C                    -1.94934000          -0.29089000          -0.00019000         
H                     1.78940000          -0.84504000           0.92780000         
H                     1.78960000          -0.84437000          -0.92816000         
H                     0.32065000           1.16958000          -0.92568000         
H                     0.32047000           1.16893000           0.92646000         
H                    -1.80185000          -0.81863000          -0.93858000         
H                    -1.80225000          -0.81857000           0.93829000         
H                    -2.42234000           0.68858000          -0.00032000         
10
Image 29 energy:-0.00203 
C                     1.47726000          -0.37547000          -0.00004000         
C                     0.67400000           0.69977000           0.00028000         
C                    -1.99910000          -0.29989000          -0.00022000         
H                     1.81586000          -0.84145000           0.92746000         
H                     1.81563000          -0.84108000          -0.92782000         
H                     0.35512000           1.17830000          -0.92552000         
H                     0.35529000           1.17789000           0.92635000         
H                    -1.84352000          -0.82274000          -0.93787000         
H                    -1.84391000          -0.82280000           0.93747000         
H                    -2.46626000           0.68113000          -0.00028000         
10
Image 30 energy:-0.00223 
C                     1.49377000          -0.37305000          -0.00003000         
C                     0.70930000           0.71039000           0.00026000         
C                    -2.04989000          -0.31232000          -0.00022000         
H                     1.82639000          -0.84256000           0.92791000         
H                     1.82645000          -0.84198000          -0.92825000         
H                     0.36525000           1.17663000          -0.92639000         
H                     0.36527000           1.17612000           0.92718000         
H                    -1.85931000          -0.82509000          -0.94161000         
H                    -1.85961000          -0.82514000           0.94122000         
H                    -2.48844000           0.68413000          -0.00025000         
10
Image 31 energy:-0.00193 
C                     1.52187000          -0.37052000          -0.00002000         
C                     0.71367000           0.70701000           0.00023000         
C                    -2.07933000          -0.31235000          -0.00021000         
H                     1.86774000          -0.83442000           0.92633000         
H                     1.86823000          -0.83357000          -0.92660000         
H                     0.42428000           1.19723000          -0.92579000         
H                     0.42401000           1.19654000           0.92662000         
H                    -1.93885000          -0.83437000          -0.93348000         
H                    -1.93895000          -0.83437000           0.93310000         
H                    -2.56640000           0.65561000          -0.00021000         
10
Image 32 energy:-0.00247 
C                     1.53080000          -0.36785000          -0.00002000         
C                     0.74613000           0.71579000           0.00025000         
C                    -2.11907000          -0.32251000          -0.00021000         
H                     1.86694000          -0.83542000           0.92764000         
H                     1.86719000          -0.83482000          -0.92790000         
H                     0.41245000           1.18715000          -0.92623000         
H                     0.41212000           1.18647000           0.92692000         
H                    -1.93343000          -0.83600000          -0.94056000         
H                    -1.93360000          -0.83620000           0.94005000         
H                    -2.57133000           0.66607000          -0.00015000         
