28
Image 1 energy:-0.00840 
C                     2.29502000           0.38488000           1.09961000         
C                     1.78258000           0.00126000          -0.26894000         
C                     2.24268000          -1.35640000          -0.74942000         
C                     0.97246000           0.76738000          -1.02975000         
C                     0.43488000           2.14151000          -0.73241000         
C                    -1.79835000          -0.42070000           0.33473000         
C                    -1.24037000          -1.80579000           0.42073000         
C                    -2.75344000          -0.10525000          -0.77455000         
C                    -1.78773000           0.43520000           1.56365000         
H                     3.39729000           0.37456000           1.11996000         
H                     1.96308000          -0.35056000           1.85263000         
H                     1.96184000           1.37581000           1.42687000         
H                     3.34344000          -1.39747000          -0.81237000         
H                     1.83360000          -1.60039000          -1.74068000         
H                     1.93917000          -2.15041000          -0.04731000         
H                     0.66654000           0.35773000          -1.99753000         
H                     0.65562000           2.47972000           0.28580000         
H                    -0.65646000           2.16461000          -0.86148000         
H                     0.85227000           2.88691000          -1.43001000         
H                    -0.37955000          -1.85325000           1.10300000         
H                    -0.91538000          -2.17329000          -0.56571000         
H                    -1.99185000          -2.52957000           0.79972000         
H                    -2.88578000           0.97630000          -0.90660000         
H                    -3.76072000          -0.52366000          -0.58411000         
H                    -2.41965000          -0.52914000          -1.73088000         
H                    -2.02376000           1.48649000           1.33028000         
H                    -0.80437000           0.40676000           2.06365000         
H                    -2.53434000           0.09762000           2.31852000         
28
Image 2 energy:-0.00841 
C                     2.29853000           0.38894000           1.09660000         
C                     1.78062000           0.00059000          -0.26744000         
C                     2.24462000          -1.35557000          -0.74864000         
C                     0.97046000           0.76840000          -1.02830000         
C                     0.44035000           2.14282000          -0.73250000         
C                    -1.79932000          -0.42192000           0.33276000         
C                    -1.24262000          -1.81007000           0.42281000         
C                    -2.75214000          -0.09978000          -0.77658000         
C                    -1.79415000           0.42801000           1.56484000         
H                     3.39919000           0.42892000           1.09672000         
H                     2.01622000          -0.36704000           1.84586000         
H                     1.92729000           1.35930000           1.44074000         
H                     3.34247000          -1.38962000          -0.83753000         
H                     1.81519000          -1.61194000          -1.72415000         
H                     1.96391000          -2.14604000          -0.03416000         
H                     0.66417000           0.35826000          -1.99617000         
H                     0.66316000           2.47948000           0.28675000         
H                    -0.65259000           2.16986000          -0.86078000         
H                     0.86128000           2.88494000          -1.43038000         
H                    -0.34921000          -1.84383000           1.06195000         
H                    -0.96780000          -2.20350000          -0.56618000         
H                    -1.97413000          -2.52356000           0.85801000         
H                    -2.84346000           0.98791000          -0.93536000         
H                    -3.78096000          -0.47405000          -0.56945000         
H                    -2.43551000          -0.56248000          -1.72723000         
H                    -1.98991000           1.48400000           1.33604000         
H                    -0.83154000           0.36537000           2.09057000         
H                    -2.57024000           0.11081000           2.28938000         
28
Image 3 energy:-0.00840 
C                     2.29418000           0.38710000           1.09930000         
C                     1.78068000           0.00132000          -0.26776000         
C                     2.24247000          -1.35548000          -0.74952000         
C                     0.97320000           0.76718000          -1.03130000         
C                     0.43912000           2.14443000          -0.73837000         
C                    -1.79548000          -0.42247000           0.33556000         
C                    -1.24179000          -1.80901000           0.42114000         
C                    -2.74667000          -0.09854000          -0.77467000         
C                    -1.79738000           0.42680000           1.56945000         
H                     3.39647000           0.43611000           1.10272000         
H                     2.01454000          -0.37792000           1.84386000         
H                     1.91272000           1.35296000           1.44963000         
H                     3.34320000          -1.39194000          -0.82222000         
H                     1.82482000          -1.60296000          -1.73566000         
H                     1.94980000          -2.15046000          -0.04385000         
H                     0.66629000           0.35532000          -1.99821000         
H                     0.69924000           2.50257000           0.26446000         
H                    -0.65552000           2.16371000          -0.82752000         
H                     0.82774000           2.87569000          -1.46513000         
H                    -0.33356000          -1.84259000           1.04154000         
H                    -0.99146000          -2.20792000          -0.57350000         
H                    -1.96672000          -2.51767000           0.87681000         
H                    -2.88739000           0.98366000          -0.89077000         
H                    -3.75097000          -0.52809000          -0.59626000         
H                    -2.40352000          -0.50400000          -1.73539000         
H                    -1.93677000           1.49317000           1.33000000         
H                    -0.85598000           0.32012000           2.13353000         
H                    -2.61915000           0.14804000           2.26734000         
28
Image 4 energy:-0.00842 
C                     2.28983000           0.38412000           1.09966000         
C                     1.77991000           0.00065000          -0.26905000         
C                     2.24114000          -1.35701000          -0.74828000         
C                     0.97233000           0.76984000          -1.03161000         
C                     0.44207000           2.14414000          -0.73855000         
C                    -1.79900000          -0.41927000           0.33800000         
C                    -1.23512000          -1.80475000           0.41815000         
C                    -2.75200000          -0.10397000          -0.77355000         
C                    -1.79199000           0.42963000           1.57016000         
H                     3.39031000           0.38837000           1.11690000         
H                     1.97101000          -0.35658000           1.84933000         
H                     1.94340000           1.36750000           1.43157000         
H                     3.33926000          -1.40065000          -0.81564000         
H                     1.82969000          -1.60542000          -1.73391000         
H                     1.93835000          -2.14732000          -0.04320000         
H                     0.66637000           0.35907000          -1.99917000         
H                     0.70102000           2.50130000           0.26436000         
H                    -0.65560000           2.15938000          -0.82541000         
H                     0.82860000           2.87813000          -1.46618000         
H                    -0.35646000          -1.84564000           1.07353000         
H                    -0.93921000          -2.18168000          -0.57115000         
H                    -1.97215000          -2.52523000           0.82556000         
H                    -2.93656000           0.97908000          -0.86261000         
H                    -3.74557000          -0.58495000          -0.62438000         
H                    -2.37283000          -0.47104000          -1.74393000         
H                    -1.97544000           1.48845000           1.33830000         
H                    -0.83144000           0.35786000           2.10063000         
H                    -2.57512000           0.12296000           2.29368000         
28
Image 5 energy:-0.00842 
C                     2.29993000           0.38961000           1.09750000         
C                     1.78244000           0.00354000          -0.26809000         
C                     2.23763000          -1.35653000          -0.74692000         
C                     0.97127000           0.76865000          -1.02833000         
C                     0.43417000           2.14333000          -0.73060000         
C                    -1.79834000          -0.42317000           0.33365000         
C                    -1.24230000          -1.81024000           0.41822000         
C                    -2.75205000          -0.10365000          -0.77551000         
C                    -1.78564000           0.43135000           1.56363000         
H                     3.40273000           0.36487000           1.11780000         
H                     1.95964000          -0.33568000           1.85654000         
H                     1.97984000           1.38808000           1.41648000         
H                     3.33932000          -1.40262000          -0.81183000         
H                     1.82351000          -1.60151000          -1.73453000         
H                     1.93365000          -2.14878000          -0.04250000         
H                     0.66370000           0.35796000          -1.99561000         
H                     0.66758000           2.48455000           0.28501000         
H                    -0.65794000           2.16688000          -0.84767000         
H                     0.84473000           2.88250000          -1.43469000         
H                    -0.37970000          -1.85807000           1.10201000         
H                    -0.91524000          -2.17433000          -0.56868000         
H                    -1.99386000          -2.54047000           0.79440000         
H                    -2.88148000           0.97904000          -0.90619000         
H                    -3.76165000          -0.51986000          -0.58633000         
H                    -2.41806000          -0.52753000          -1.73252000         
H                    -1.99796000           1.48485000           1.33362000         
H                    -0.81304000           0.38189000           2.07566000         
H                    -2.54737000           0.10751000           2.30377000         
28
Image 6 energy:-0.00838 
C                     2.29764000           0.38953000           1.09783000         
C                     1.77926000           0.00058000          -0.26611000         
C                     2.24382000          -1.35499000          -0.74809000         
C                     0.96918000           0.76867000          -1.02724000         
C                     0.44035000           2.14429000          -0.73382000         
C                    -1.79627000          -0.42279000           0.33252000         
C                    -1.24255000          -1.81104000           0.41810000         
C                    -2.75150000          -0.09916000          -0.77430000         
C                    -1.79229000           0.42549000           1.56564000         
H                     3.39694000           0.42932000           1.09653000         
H                     2.01523000          -0.36443000           1.84791000         
H                     1.92743000           1.35886000           1.44217000         
H                     3.33973000          -1.38590000          -0.84208000         
H                     1.81244000          -1.61258000          -1.72318000         
H                     1.96706000          -2.14507000          -0.03238000         
H                     0.66010000           0.35706000          -1.99328000         
H                     0.65929000           2.48323000           0.28445000         
H                    -0.65261000           2.17023000          -0.86523000         
H                     0.86131000           2.88897000          -1.43294000         
H                    -0.35711000          -1.85276000           1.06204000         
H                    -0.96352000          -2.20246000          -0.56978000         
H                    -1.97937000          -2.51944000           0.84350000         
H                    -2.83923000           0.98849000          -0.93492000         
H                    -3.78014000          -0.46915000          -0.56178000         
H                    -2.44027000          -0.56473000          -1.72520000         
H                    -1.98957000           1.48288000           1.33206000         
H                    -0.82671000           0.36538000           2.09107000         
H                    -2.56883000           0.10873000           2.29391000         
28
Image 7 energy:-0.00836 
C                     2.29345000           0.38765000           1.09975000         
C                     1.77925000           0.00195000          -0.26744000         
C                     2.24172000          -1.35487000          -0.74827000         
C                     0.97098000           0.76740000          -1.03031000         
C                     0.44039000           2.14465000          -0.73623000         
C                    -1.79697000          -0.42243000           0.33304000         
C                    -1.24126000          -1.80955000           0.41985000         
C                    -2.74956000          -0.09791000          -0.77585000         
C                    -1.79220000           0.42502000           1.56814000         
H                     3.39732000           0.44918000           1.09938000         
H                     2.02583000          -0.38599000           1.84217000         
H                     1.90164000           1.35013000           1.45433000         
H                     3.34378000          -1.39077000          -0.82472000         
H                     1.81964000          -1.60713000          -1.73007000         
H                     1.95400000          -2.14804000          -0.03819000         
H                     0.66583000           0.35649000          -1.99845000         
H                     0.69325000           2.49443000           0.27191000         
H                    -0.65188000           2.17185000          -0.83604000         
H                     0.84155000           2.87516000          -1.45324000         
H                    -0.32141000          -1.83661000           1.02821000         
H                    -1.00431000          -2.21314000          -0.57709000         
H                    -1.95942000          -2.51719000           0.89276000         
H                    -2.89164000           0.98520000          -0.88970000         
H                    -3.75498000          -0.52923000          -0.59969000         
H                    -2.40527000          -0.50142000          -1.73780000         
H                    -1.95457000           1.48647000           1.34049000         
H                    -0.84276000           0.33331000           2.11424000         
H                    -2.59258000           0.12835000           2.27669000         
28
Image 8 energy:-0.00839 
C                     2.29745000           0.39006000           1.09662000         
C                     1.78008000           0.00236000          -0.26680000         
C                     2.23442000          -1.35852000          -0.74414000         
C                     0.97133000           0.77110000          -1.02861000         
C                     0.44082000           2.14721000          -0.73774000         
C                    -1.79762000          -0.42308000           0.33724000         
C                    -1.23943000          -1.80989000           0.41413000         
C                    -2.74894000          -0.10212000          -0.77396000         
C                    -1.78961000           0.42566000           1.56958000         
H                     3.39664000           0.39984000           1.10779000         
H                     1.98600000          -0.35009000           1.84826000         
H                     1.94727000           1.36977000           1.43083000         
H                     3.33134000          -1.40357000          -0.81574000         
H                     1.81958000          -1.60453000          -1.73171000         
H                     1.93156000          -2.14837000          -0.03820000         
H                     0.65857000           0.35739000          -1.99262000         
H                     0.70605000           2.51215000           0.26044000         
H                    -0.65956000           2.15712000          -0.81598000         
H                     0.81904000           2.87996000          -1.47308000         
H                    -0.35830000          -1.85502000           1.06719000         
H                    -0.94800000          -2.18647000          -0.57721000         
H                    -1.97773000          -2.53172000           0.82343000         
H                    -2.92937000           0.98137000          -0.86052000         
H                    -3.74275000          -0.58015000          -0.62441000         
H                    -2.37107000          -0.46855000          -1.74483000         
H                    -1.93377000           1.49268000           1.32871000         
H                    -0.84105000           0.32276000           2.12261000         
H                    -2.60257000           0.14606000           2.27669000         
28
Image 9 energy:-0.00842 
C                     2.30094000           0.39077000           1.09760000         
C                     1.78211000           0.00503000          -0.26840000         
C                     2.23456000          -1.35655000          -0.74495000         
C                     0.97002000           0.77067000          -1.02808000         
C                     0.43655000           2.14519000          -0.73169000         
C                    -1.79716000          -0.42356000           0.33415000         
C                    -1.24182000          -1.81162000           0.41427000         
C                    -2.75317000          -0.10544000          -0.77375000         
C                    -1.78417000           0.42927000           1.56475000         
H                     3.40295000           0.34126000           1.12223000         
H                     1.94095000          -0.32073000           1.86122000         
H                     2.00257000           1.39939000           1.40755000         
H                     3.33512000          -1.40930000          -0.80710000         
H                     1.82211000          -1.60327000          -1.73007000         
H                     1.92456000          -2.14459000          -0.03956000         
H                     0.66057000           0.35888000          -1.99412000         
H                     0.68598000           2.49382000           0.27753000         
H                    -0.65678000           2.16719000          -0.83158000         
H                     0.83377000           2.88010000          -1.44918000         
H                    -0.38851000          -1.86595000           1.10465000         
H                    -0.90704000          -2.17207000          -0.57101000         
H                    -1.99853000          -2.53795000           0.77639000         
H                    -2.90551000           0.97701000          -0.88746000         
H                    -3.75562000          -0.54807000          -0.59810000         
H                    -2.40412000          -0.50597000          -1.73711000         
H                    -1.98268000           1.48417000           1.33408000         
H                    -0.81658000           0.36964000           2.08274000         
H                    -2.55374000           0.11525000           2.29946000         
28
Image 10 energy:-0.00839 
C                     2.30350000           0.39323000           1.09531000         
C                     1.78047000           0.00226000          -0.26471000         
C                     2.23763000          -1.35691000          -0.74427000         
C                     0.96979000           0.76942000          -1.02464000         
C                     0.43703000           2.14450000          -0.72972000         
C                    -1.79878000          -0.42351000           0.33128000         
C                    -1.24559000          -1.81222000           0.41459000         
C                    -2.75364000          -0.10175000          -0.77587000         
C                    -1.78382000           0.42694000           1.56295000         
H                     3.40402000           0.38328000           1.10465000         
H                     1.98095000          -0.33330000           1.85728000         
H                     1.97448000           1.38532000           1.41605000         
H                     3.33459000          -1.39541000          -0.82599000         
H                     1.81510000          -1.60567000          -1.72937000         
H                     1.94723000          -2.14789000          -0.03470000         
H                     0.66021000           0.35764000          -1.99078000         
H                     0.64457000           2.47732000           0.29321000         
H                    -0.65667000           2.16809000          -0.86976000         
H                     0.86468000           2.89260000          -1.41906000         
H                    -0.37695000          -1.86377000           1.08805000         
H                    -0.93064000          -2.18025000          -0.57205000         
H                    -1.99438000          -2.53809000           0.80331000         
H                    -2.85732000           0.98457000          -0.92468000         
H                    -3.77378000          -0.49006000          -0.56973000         
H                    -2.43487000          -0.55267000          -1.72901000         
H                    -2.03198000           1.47666000           1.33741000         
H                    -0.79528000           0.40493000           2.05301000         
H                    -2.51956000           0.07703000           2.32063000         
28
Image 11 energy:-0.00842 
C                     2.29512000           0.38929000           1.09981000         
C                     1.77898000           0.00228000          -0.26706000         
C                     2.24132000          -1.35474000          -0.74704000         
C                     0.96891000           0.76840000          -1.02902000         
C                     0.43951000           2.14517000          -0.73419000         
C                    -1.79660000          -0.42362000           0.33203000         
C                    -1.24164000          -1.81129000           0.41659000         
C                    -2.75158000          -0.09794000          -0.77468000         
C                    -1.78768000           0.42381000           1.56674000         
H                     3.39760000           0.43615000           1.10055000         
H                     2.01583000          -0.37389000           1.84596000         
H                     1.91618000           1.35723000           1.44897000         
H                     3.34133000          -1.38879000          -0.83439000         
H                     1.81070000          -1.61326000          -1.72136000         
H                     1.96063000          -2.14484000          -0.03072000         
H                     0.66011000           0.35686000          -1.99532000         
H                     0.67418000           2.48773000           0.28041000         
H                    -0.65063000           2.17585000          -0.85462000         
H                     0.85459000           2.88252000          -1.43976000         
H                    -0.34891000          -1.84777000           1.05368000         
H                    -0.97163000          -2.20532000          -0.57437000         
H                    -1.97469000          -2.51954000           0.85156000         
H                    -2.86606000           0.98721000          -0.91149000         
H                    -3.76961000          -0.49840000          -0.58239000         
H                    -2.42332000          -0.53115000          -1.73182000         
H                    -1.97677000           1.48074000           1.33980000         
H                    -0.82642000           0.35489000           2.09288000         
H                    -2.56550000           0.11144000           2.29153000         
28
Image 12 energy:-0.00838 
C                     2.29928000           0.39127000           1.09714000         
C                     1.78028000           0.00375000          -0.26596000         
C                     2.23641000          -1.35648000          -0.74354000         
C                     0.97126000           0.77105000          -1.02674000         
C                     0.44240000           2.14767000          -0.73703000         
C                    -1.79889000          -0.42432000           0.33478000         
C                    -1.24319000          -1.81264000           0.41260000         
C                    -2.75191000          -0.10116000          -0.77360000         
C                    -1.78885000           0.42413000           1.56775000         
H                     3.40048000           0.40469000           1.10645000         
H                     1.99234000          -0.35482000           1.84788000         
H                     1.94875000           1.37044000           1.43663000         
H                     3.33401000          -1.39973000          -0.81802000         
H                     1.82031000          -1.60313000          -1.73138000         
H                     1.93865000          -2.14599000          -0.03666000         
H                     0.66250000           0.35819000          -1.99246000         
H                     0.70748000           2.51037000           0.26234000         
H                    -0.65809000           2.16193000          -0.81479000         
H                     0.82500000           2.87533000          -1.47089000         
H                    -0.33807000          -1.84676000           1.04082000         
H                    -0.97686000          -2.20014000          -0.58603000         
H                    -1.97030000          -2.53583000           0.85240000         
H                    -2.92382000           0.98083000          -0.86479000         
H                    -3.74493000          -0.56670000          -0.61100000         
H                    -2.39060000          -0.47547000          -1.74293000         
H                    -1.93872000           1.48864000           1.33220000         
H                    -0.83887000           0.32336000           2.11639000         
H                    -2.59714000           0.13948000           2.27663000         
28
Image 13 energy:-0.00835 
C                     2.30096000           0.39125000           1.09843000         
C                     1.78214000           0.00507000          -0.26722000         
C                     2.23314000          -1.35650000          -0.74528000         
C                     0.97115000           0.77159000          -1.02847000         
C                     0.43583000           2.14644000          -0.73178000         
C                    -1.79639000          -0.42429000           0.33454000         
C                    -1.24294000          -1.81232000           0.41235000         
C                    -2.75225000          -0.10559000          -0.77355000         
C                    -1.78252000           0.42747000           1.56577000         
H                     3.40068000           0.34619000           1.12007000         
H                     1.94597000          -0.31725000           1.86396000         
H                     1.99896000           1.39819000           1.40409000         
H                     3.33300000          -1.41180000          -0.80550000         
H                     1.82034000          -1.60206000          -1.72913000         
H                     1.91963000          -2.14544000          -0.04159000         
H                     0.66046000           0.35931000          -1.99407000         