21
Image 1 energy:-0.02595 
C                     2.19153000          -1.02643000           0.07214000         
C                     2.75227000           0.39297000          -0.07229000         
C                    -2.00435000          -1.14152000          -0.11861000         
C                    -1.18018000           0.10552000          -0.00263000         
C                    -1.00865000           0.73429000           1.34698000         
C                    -0.95860000           0.94163000          -1.22671000         
H                     1.09285000          -1.02421000          -0.02330000         
H                     2.44261000          -1.45645000           1.05429000         
H                     2.59903000          -1.69977000          -0.69896000         
H                     2.49470000           0.82415000          -1.05157000         
H                    -1.77488000          -1.69556000          -1.04428000         
H                    -1.84127000          -1.81725000           0.73734000         
H                    -0.84163000          -0.02257000           2.12921000         
H                    -1.90687000           1.30991000           1.65389000         
H                    -0.16563000           1.44066000           1.36416000         
H                    -0.77282000           0.31789000          -2.11571000         
H                    -0.10614000           1.62626000          -1.10264000         
H                    -1.84028000           1.57381000          -1.46521000         
H                     3.84813000           0.40645000           0.02024000         
H                     2.34346000           1.06160000           0.70098000         
H                    -3.09483000          -0.92176000          -0.14515000         
21
Image 2 energy:-0.02595 
C                     2.19170000          -1.02611000           0.07323000         
C                     2.75249000           0.39323000          -0.07168000         
C                    -2.00583000          -1.14092000          -0.11808000         
C                    -1.18144000           0.10563000          -0.00346000         
C                    -1.00924000           0.73402000           1.34621000         
C                    -0.95705000           0.94030000          -1.22784000         
H                     1.09584000          -1.02148000          -0.01931000         
H                     2.44310000          -1.45933000           1.05276000         
H                     2.59624000          -1.69434000          -0.69983000         
H                     2.49414000           0.82552000          -1.04964000         
H                    -1.80857000          -1.67503000          -1.06053000         
H                    -1.81560000          -1.83355000           0.71693000         
H                    -0.83626000          -0.02515000           2.12690000         
H                    -1.90752000           1.30971000           1.65909000         
H                    -0.16218000           1.43947000           1.36016000         
H                    -0.75766000           0.31656000          -2.11370000         
H                    -0.10914000           1.63165000          -1.09684000         
H                    -1.84191000           1.56564000          -1.47687000         
H                     3.84971000           0.40843000           0.01994000         
H                     2.34737000           1.06037000           0.70233000         
H                    -3.09454000          -0.92169000          -0.10209000         
21
Image 3 energy:-0.02595 
C                     2.18958000          -1.02342000           0.07730000         
C                     2.75731000           0.39261000          -0.07672000         
C                    -2.00668000          -1.14173000          -0.11919000         
C                    -1.18168000           0.10497000          -0.00399000         
C                    -1.01153000           0.73161000           1.34705000         
C                    -0.95555000           0.94217000          -1.22652000         
H                     1.09182000          -1.01638000          -0.02199000         
H                     2.43344000          -1.44736000           1.06399000         
H                     2.59714000          -1.70296000          -0.68684000         
H                     2.50376000           0.81799000          -1.05956000         
H                    -1.83172000          -1.66054000          -1.07464000         
H                    -1.79226000          -1.84711000           0.69982000         
H                    -0.85321000          -0.02478000           2.13082000         
H                    -1.90527000           1.31486000           1.65199000         
H                    -0.16184000           1.42852000           1.36595000         
H                    -0.75049000           0.32034000          -2.11281000         
H                    -0.11285000           1.63580000          -1.09204000         
H                    -1.84105000           1.56353000          -1.47761000         
H                     3.85300000           0.40245000           0.01791000         
H                     2.34871000           1.06871000           0.69027000         
H                    -3.09596000          -0.92704000          -0.07052000         
21
Image 4 energy:-0.02594 
C                     2.18630000          -1.02123000           0.07951000         
C                     2.76183000           0.39063000          -0.08053000         
C                    -2.00225000          -1.14489000          -0.12049000         
C                    -1.18357000           0.10505000          -0.00361000         
C                    -1.01479000           0.73185000           1.34773000         
C                    -0.95776000           0.94453000          -1.22438000         
H                     1.09085000          -1.00768000          -0.02328000         
H                     2.42555000          -1.44197000           1.06728000         
H                     2.59169000          -1.70555000          -0.68028000         
H                     2.51632000           0.81106000          -1.06682000         
H                    -1.82290000          -1.66201000          -1.07732000         
H                    -1.78649000          -1.85012000           0.69950000         
H                    -0.87771000          -0.03020000           2.13208000         
H                    -1.90143000           1.33373000           1.64173000         
H                    -0.15009000           1.41492000           1.37569000         
H                    -0.76154000           0.32451000          -2.11349000         
H                    -0.10459000           1.63050000          -1.08999000         
H                    -1.83945000           1.57745000          -1.46979000         
H                     3.85816000           0.39611000           0.01932000         
H                     2.35827000           1.07271000           0.68047000         
H                    -3.09348000          -0.93418000          -0.07402000         
21
Image 5 energy:-0.02595 
C                     2.18502000          -1.02155000           0.08040000         
C                     2.76471000           0.38849000          -0.08252000         
C                    -1.99842000          -1.14613000          -0.12294000         
C                    -1.18212000           0.10538000          -0.00192000         
C                    -1.01571000           0.73234000           1.34829000         
C                    -0.96200000           0.94730000          -1.22263000         
H                     1.08850000          -1.00560000          -0.02490000         
H                     2.41875000          -1.43829000           1.07273000         
H                     2.59057000          -1.71111000          -0.67485000         
H                     2.52300000           0.80618000          -1.07212000         
H                    -1.79187000          -1.67761000          -1.06608000         
H                    -1.80704000          -1.83929000           0.71238000         
H                    -0.87269000          -0.02528000           2.13437000         
H                    -1.90488000           1.32935000           1.64464000         
H                    -0.15533000           1.41955000           1.37273000         
H                    -0.77867000           0.32933000          -2.11591000         
H                    -0.11025000           1.62987000          -1.09592000         
H                    -1.84247000           1.58075000          -1.45520000         
H                     3.86052000           0.39119000           0.02207000         
H                     2.35441000           1.07620000           0.67435000         
H                    -3.08981000          -0.93475000          -0.11278000         
21
Image 6 energy:-0.02595 
C                     2.18175000          -1.02325000           0.07732000         
C                     2.76204000           0.38715000          -0.07885000         
C                    -1.99139000          -1.14890000          -0.12185000         
C                    -1.18156000           0.10689000          -0.00244000         
C                    -1.01405000           0.73528000           1.34800000         
C                    -0.96620000           0.94918000          -1.22314000         
H                     1.08579000          -1.00695000          -0.02742000         
H                     2.41725000          -1.44502000           1.06671000         
H                     2.58769000          -1.70884000          -0.68216000         
H                     2.51996000           0.81013000          -1.06536000         
H                    -1.76061000          -1.69448000          -1.05058000         
H                    -1.81925000          -1.82792000           0.72818000         
H                    -0.86820000          -0.02283000           2.13361000         
H                    -1.90506000           1.32802000           1.64323000         
H                    -0.15763000           1.42673000           1.37214000         
H                    -0.79213000           0.32979000          -2.11775000         
H                    -0.10263000           1.62387000          -1.10037000         
H                    -1.84368000           1.59478000          -1.45019000         
H                     3.85732000           0.38783000           0.02270000         
H                     2.35727000           1.07025000           0.68225000         
H                    -3.08262000          -0.94109000          -0.14352000         
21
Image 7 energy:-0.02594 
C                     2.17960000          -1.02772000           0.07411000         
C                     2.75610000           0.38541000          -0.07397000         
C                    -1.98301000          -1.15066000          -0.12113000         
C                    -1.17853000           0.10857000          -0.00239000         
C                    -1.01278000           0.73984000           1.34683000         
C                    -0.96982000           0.95122000          -1.22465000         
H                     1.08298000          -1.01229000          -0.02615000         
H                     2.41917000          -1.45749000           1.05907000         
H                     2.58331000          -1.70655000          -0.69201000         
H                     2.51294000           0.81483000          -1.05780000         
H                    -1.74073000          -1.70225000          -1.04358000         
H                    -1.81728000          -1.82260000           0.73564000         
H                    -0.85413000          -0.01775000           2.13118000         
H                    -1.90894000           1.32670000           1.64930000         
H                    -0.15994000           1.43926000           1.36676000         
H                    -0.79627000           0.33668000          -2.12109000         
H                    -0.11616000           1.63223000          -1.10491000         
H                    -1.85161000           1.58541000          -1.44627000         
H                     3.85288000           0.38868000           0.02744000         
H                     2.35040000           1.06258000           0.69237000         
H                    -3.07473000          -0.94668000          -0.15577000         
21
Image 8 energy:-0.02594 
C                     2.17924000          -1.03217000           0.06895000         
C                     2.75092000           0.38444000          -0.06784000         
C                    -1.97634000          -1.15153000          -0.11837000         
C                    -1.17557000           0.11036000          -0.00243000         
C                    -1.01335000           0.74340000           1.34498000         
C                    -0.97175000           0.95234000          -1.22623000         
H                     1.08264000          -1.01643000          -0.02739000         
H                     2.42254000          -1.46839000           1.05007000         
H                     2.58071000          -1.70358000          -0.70412000         
H                     2.50051000           0.81939000          -1.04897000         
H                    -1.73346000          -1.70379000          -1.04053000         
H                    -1.80697000          -1.82185000           0.73920000         
H                    -0.84253000          -0.00882000           2.13060000         
H                    -1.91623000           1.31256000           1.64674000         
H                    -0.17457000           1.45529000           1.36057000         
H                    -0.80649000           0.33287000          -2.12234000         
H                    -0.10981000           1.63073000          -1.11287000         
H                    -1.85363000           1.59578000          -1.44469000         
H                     3.84735000           0.38883000           0.03126000         
H                     2.34179000           1.05681000           0.70526000         
H                    -3.06897000          -0.95090000          -0.15152000         
21
Image 9 energy:-0.02594 
C                     2.17816000          -1.03404000           0.06555000         
C                     2.74571000           0.38331000          -0.06129000         
C                    -1.97256000          -1.15174000          -0.11660000         
C                    -1.17484000           0.11255000          -0.00486000         
C                    -1.01026000           0.74650000           1.34415000         
C                    -0.97388000           0.95152000          -1.22905000         
H                     1.08120000          -1.02465000          -0.02813000         
H                     2.42855000          -1.47579000           1.04340000         
H                     2.58194000          -1.70018000          -0.71487000         
H                     2.48703000           0.83320000          -1.02911000         
H                    -1.73714000          -1.70079000          -1.04238000         
H                    -1.79356000          -1.82371000           0.73769000         
H                    -0.83204000          -0.00833000           2.12696000         
H                    -1.91526000           1.31437000           1.65305000         
H                    -0.17220000           1.46177000           1.35902000         
H                    -0.79545000           0.33144000          -2.12194000         
H                    -0.12378000           1.64125000          -1.11295000         
H                    -1.86196000           1.57925000          -1.45358000         
H                     3.84223000           0.39123000           0.02191000         
H                     2.34942000           1.03895000           0.72455000         
H                    -3.06615000          -0.95448000          -0.13871000         
21
Image 10 energy:-0.02595 
C                     2.17913000          -1.03931000           0.06080000         
C                     2.73774000           0.38371000          -0.05682000         
C                    -1.96792000          -1.15205000          -0.11427000         
C                    -1.17269000           0.11383000          -0.00369000         
C                    -1.01145000           0.75039000           1.34329000         
C                    -0.97135000           0.95181000          -1.23050000         
H                     1.08085000          -1.03216000          -0.02394000         
H                     2.43657000          -1.49537000           1.02770000         
H                     2.57573000          -1.69017000          -0.73067000         
H                     2.47780000           0.83162000          -1.03011000         
H                    -1.73834000          -1.69711000          -1.04376000         
H                    -1.77863000          -1.82632000           0.73594000         
H                    -0.82380000          -0.00117000           2.12675000         
H                    -1.92086000           1.30863000           1.65366000         
H                    -0.18046000           1.47338000           1.35435000         
H                    -0.78350000           0.33051000          -2.12077000         
H                    -0.12662000           1.64823000          -1.11219000         
H                    -1.86341000           1.57259000          -1.46220000         
H                     3.83541000           0.39681000           0.03552000         
H                     2.33062000           1.03903000           0.72911000         
H                    -3.06209000          -0.95844000          -0.12524000         
21
Image 11 energy:-0.02595 
C                     2.17931000          -1.04374000           0.05495000         
C                     2.73028000           0.38360000          -0.05037000         
C                    -1.96341000          -1.15173000          -0.11161000         
C                    -1.16990000           0.11568000          -0.00450000         
C                    -1.01063000           0.75378000           1.34175000         
C                    -0.97175000           0.95091000          -1.23252000         
H                     1.08245000          -1.03903000          -0.02436000         
H                     2.44584000          -1.50081000           1.02245000         
H                     2.57950000          -1.69107000          -0.74258000         
H                     2.46155000           0.84572000          -1.01044000         
H                    -1.74257000          -1.69299000          -1.04523000         
H                    -1.76550000          -1.82898000           0.73423000         
H                    -0.81837000           0.00470000           2.12607000         
H                    -1.92327000           1.30586000           1.65240000         
H                    -0.18505000           1.48214000           1.35158000         
H                    -0.77606000           0.32905000          -2.12042000         
H                    -0.13297000           1.65472000          -1.11307000         
H                    -1.86805000           1.56425000          -1.47016000         
H                     3.82731000           0.40019000           0.02904000         
H                     2.32678000           1.02429000           0.74902000         
H                    -3.05771000          -0.95927000          -0.11120000         
21
Image 12 energy:-0.02595 
C                     2.18311000          -1.04644000           0.04976000         
C                     2.72354000           0.38343000          -0.04349000         
C                    -1.96260000          -1.15087000          -0.10938000         
C                    -1.16968000           0.11692000          -0.00453000         
C                    -1.01007000           0.75777000           1.34112000         
C                    -0.96995000           0.94881000          -1.23466000         
H                     1.08272000          -1.05366000          -0.02096000         
H                     2.45953000          -1.52067000           1.00238000         
H                     2.57650000          -1.67506000          -0.76237000         
H                     2.44224000           0.85089000          -1.00074000         
H                    -1.74689000          -1.68939000          -1.04581000         
H                    -1.75737000          -1.83002000           0.73330000         
H                    -0.81459000           0.00878000           2.12529000         
H                    -1.92387000           1.30760000           1.65223000         
H                    -0.18616000           1.48814000           1.34982000         
H                    -0.76336000           0.32306000          -2.11765000         
H                    -0.13837000           1.66077000          -1.11431000         
H                    -1.87008000           1.55223000          -1.48031000         
H                     3.82206000           0.40936000           0.03051000         
H                     2.32347000           1.01420000           0.76303000         
H                    -3.05725000          -0.96073000          -0.10035000         
21
Image 13 energy:-0.02594 
C                     2.18596000          -1.05310000           0.04305000         
C                     2.71428000           0.38556000          -0.03799000         
C                    -1.96006000          -1.15030000          -0.10665000         
C                    -1.16778000           0.11844000          -0.00432000         
C                    -1.01012000           0.76101000           1.33999000         
C                    -0.96805000           0.94789000          -1.23642000         
H                     1.08911000          -1.06038000          -0.01932000         
H                     2.47355000          -1.52870000           0.99457000         
H                     2.58128000          -1.67568000          -0.77506000         
H                     2.42799000           0.86300000          -0.98660000         
H                    -1.74834000          -1.68926000          -1.04357000         
H                    -1.75212000          -1.82890000           0.73578000         
H                    -0.81132000           0.01431000           2.12562000         
H                    -1.92514000           1.30948000           1.65252000         
H                    -0.18731000           1.49312000           1.34624000         
H                    -0.75178000           0.32107000          -2.11652000         
H                    -0.14168000           1.66539000          -1.11328000         
H                    -1.87063000           1.54460000          -1.48943000         
H                     3.81144000           0.41573000           0.03100000         
H                     2.30967000           1.00300000           0.77909000         
H                    -3.05463000          -0.95983000          -0.09324000         
21
Image 14 energy:-0.02594 
C                     2.19132000          -1.05451000           0.03605000         
C                     2.71044000           0.38422000          -0.03025000         
C                    -1.96051000          -1.14925000          -0.10387000         
C                    -1.16745000           0.11864000          -0.00421000         
C                    -1.01106000           0.76550000           1.33889000         
C                    -0.96778000           0.94513000          -1.23793000         
H                     1.09001000          -1.07673000          -0.01842000         
H                     2.49066000          -1.54510000           0.97436000         
H                     2.58136000          -1.65969000          -0.79666000         
H                     2.41082000           0.87142000          -0.97060000         
H                    -1.74884000          -1.68956000          -1.04007000         
H                    -1.75279000          -1.82698000           0.73953000         
H                    -0.81486000           0.02131000           2.12713000         
H                    -1.92676000           1.31343000           1.64641000         
H                    -0.18999000           1.49832000           1.34504000         
H                    -0.74627000           0.31757000          -2.11570000         
H                    -0.14541000           1.66694000          -1.11454000         
H                    -1.87278000           1.53670000          -1.49649000         
H                     3.80985000           0.42475000           0.02972000         
H                     2.31109000           0.98955000           0.79709000         
H                    -3.05481000          -0.95759000          -0.09108000         
21
Image 15 energy:-0.02594 
C                     2.19561000          -1.06076000           0.02902000         
C                     2.70235000           0.38617000          -0.02362000         
C                    -1.95815000          -1.14888000          -0.10197000         
C                    -1.16582000           0.12035000          -0.00321000         
C                    -1.01191000           0.77004000           1.33796000         
C                    -0.96698000           0.94327000          -1.23941000         
H                     1.09810000          -1.08404000          -0.01602000         
H                     2.50628000          -1.55884000           0.95997000         
H                     2.58452000          -1.65351000          -0.81351000         
H                     2.39261000           0.88177000          -0.95683000         
H                    -1.74427000          -1.69150000          -1.03648000         
H                    -1.75395000          -1.82468000           0.74377000         
H                    -0.81596000           0.02645000           2.12748000         
H                    -1.92716000           1.32059000           1.64428000         
H                    -0.18899000           1.50152000           1.34329000         
H                    -0.74433000           0.31197000          -2.11470000         
H                    -0.14634000           1.66687000          -1.11894000         
H                    -1.87240000           1.53146000          -1.49807000         
H                     3.79937000           0.42975000           0.02935000         
H                     2.30503000           0.97802000           0.81398000         
H                    -3.05281000          -0.95731000          -0.09305000         
21
Image 16 energy:-0.02593 
C                     2.20002000          -1.06261000           0.02064000         
C                     2.70081000           0.38409000          -0.01582000         
C                    -1.95669000          -1.14979000          -0.09853000         
C                    -1.16738000           0.12052000          -0.00312000         
C                    -1.01402000           0.77522000           1.33671000         
C                    -0.96805000           0.94263000          -1.24130000         
H                     1.09896000          -1.09794000          -0.01789000         
H                     2.52106000          -1.56990000           0.94324000         
H                     2.58419000          -1.64434000          -0.83113000         
H                     2.38149000           0.89221000          -0.93729000         
H                    -1.73730000          -1.69698000          -1.02897000         
H                    -1.75447000          -1.82008000           0.75194000         
H                    -0.81807000           0.03564000           2.12962000         
H                    -1.93034000           1.32596000           1.64068000         
H                    -0.19129000           1.50709000           1.33939000         
H                    -0.74214000           0.31084000          -2.11519000         
H                    -0.14702000           1.66718000          -1.11966000         
H                    -1.87440000           1.53140000          -1.50531000         
H                     3.80062000           0.43729000           0.02866000         
H                     2.30479000           0.96196000           0.83424000         
H                    -3.05148000          -0.96001000          -0.09556000         
21
Image 17 energy:-0.02593 
C                     2.20369000          -1.06806000           0.01474000         
C                     2.69674000           0.38360000          -0.00933000         
C                    -1.95182000          -1.14958000          -0.09647000         
C                    -1.16329000           0.12249000          -0.00312000         
C                    -1.01759000           0.78014000           1.33537000         
C                    -0.97118000           0.94171000          -1.24186000         
H                     1.10517000          -1.10092000          -0.01730000         
H                     2.53339000          -1.58751000           0.92715000         
H                     2.58598000          -1.63471000          -0.84904000         
H                     2.36672000           0.89783000          -0.92517000         
H                    -1.73051000          -1.70058000          -1.02428000         
H                    -1.75369000          -1.81721000           0.75711000         
H                    -0.82809000           0.04257000           2.13173000         
H                    -1.93510000           1.33153000           1.63009000         
H                    -0.19655000           1.51252000           1.34180000         