15
Image 1 energy:-0.01244 
C                     1.02318000           1.26925000           0.20323000         
C                     0.72293000           0.02125000          -0.63658000         
C                     0.96110000          -1.28214000           0.13456000         
C                    -2.65556000          -0.00661000           0.25272000         
H                     0.37593000           1.30647000           1.09242000         
H                     0.85773000           2.19354000          -0.37171000         
H                     2.06779000           1.27146000           0.55232000         
H                    -0.32706000           0.05913000          -0.97628000         
H                     1.35112000           0.02918000          -1.54668000         
H                     2.00584000          -1.35941000           0.47442000         
H                    -2.40130000           0.61730000           1.10751000         
H                    -3.13113000           0.43513000          -0.62013000         
H                    -2.47316000          -1.08001000           0.29419000         
H                     0.31660000          -1.32830000           1.02641000         
H                     0.74264000          -2.16532000          -0.48389000         
15
Image 2 energy:-0.01244 
C                     1.02623000           1.26995000           0.20203000         
C                     0.71749000           0.02171000          -0.63407000         
C                     0.96446000          -1.28292000           0.13757000         
C                    -2.65465000          -0.00669000           0.24832000         
H                     0.39300000           1.30197000           1.10321000         
H                     0.84642000           2.19398000          -0.36775000         
H                     2.07636000           1.27694000           0.53260000         
H                    -0.33756000           0.05476000          -0.95458000         
H                     1.32470000           0.03171000          -1.55266000         
H                     2.01343000          -1.36134000           0.45996000         
H                    -2.40860000           0.60050000           1.11697000         
H                    -3.12285000           0.45215000          -0.61919000         
H                    -2.49041000          -1.07884000           0.27329000         
H                     0.33259000          -1.33182000           1.03887000         
H                     0.73569000          -2.16449000          -0.48126000         
15
Image 3 energy:-0.01239 
C                     1.02535000           1.26926000           0.20097000         
C                     0.71161000           0.01882000          -0.62913000         
C                     0.97335000          -1.28347000           0.13621000         
C                    -2.65858000          -0.00225000           0.24572000         
H                     0.40308000           1.30091000           1.10822000         
H                     0.83665000           2.19193000          -0.36704000         
H                     2.08068000           1.27928000           0.52365000         
H                    -0.34644000           0.05003000          -0.94424000         
H                     1.31754000           0.03037000          -1.55369000         
H                     2.02860000          -1.35745000           0.45382000         
H                    -2.40779000           0.58464000           1.12371000         
H                    -3.11469000           0.47535000          -0.62191000         
H                    -2.50749000          -1.08454000           0.25974000         
H                     0.35266000          -1.33196000           1.04307000         
H                     0.74114000          -2.16672000          -0.47482000         
15
Image 4 energy:-0.01234 
C                     1.02514000           1.26963000           0.20060000         
C                     0.71051000           0.01821000          -0.62916000         
C                     0.97608000          -1.28333000           0.13959000         
C                    -2.65799000          -0.00391000           0.24338000         
H                     0.40910000           1.29821000           1.11366000         
H                     0.82741000           2.19176000          -0.36786000         
H                     2.08033000           1.28593000           0.50887000         
H                    -0.34837000           0.04797000          -0.93459000         
H                     1.30429000           0.02883000          -1.55641000         
H                     2.02804000          -1.35729000           0.44010000         
H                    -2.39819000           0.57508000           1.13736000         
H                    -3.09596000           0.50318000          -0.60901000         
H                    -2.54388000          -1.08093000           0.23395000         
H                     0.35687000          -1.33207000           1.05168000         
H                     0.74055000          -2.16775000          -0.47499000         
15
Image 5 energy:-0.01235 
C                     1.02308000           1.26961000           0.19889000         
C                     0.70934000           0.01669000          -0.62813000         
C                     0.97917000          -1.28345000           0.14036000         
C                    -2.65939000          -0.00021000           0.24329000         
H                     0.41444000           1.29505000           1.11591000         
H                     0.81659000           2.19045000          -0.36621000         
H                     2.08227000           1.28979000           0.50411000         
H                    -0.35196000           0.04579000          -0.93153000         
H                     1.30286000           0.02783000          -1.55745000         
H                     2.03815000          -1.35623000           0.44391000         
H                    -2.38214000           0.53123000           1.14315000         
H                    -3.08788000           0.53157000          -0.61140000         
H                    -2.56505000          -1.08845000           0.21352000         
H                     0.37233000          -1.32983000           1.05568000         
H                     0.73891000          -2.16862000          -0.46681000         
15
Image 6 energy:-0.01240 
C                     1.02238000           1.26984000           0.19752000         
C                     0.70603000           0.01536000          -0.62571000         
C                     0.98437000          -1.28335000           0.14133000         
C                    -2.66025000          -0.00105000           0.24033000         
H                     0.41861000           1.29338000           1.11845000         
H                     0.81002000           2.19052000          -0.36611000         
H                     2.08339000           1.29340000           0.49595000         
H                    -0.35573000           0.03869000          -0.92418000         
H                     1.29810000           0.02801000          -1.55817000         
H                     2.04319000          -1.35528000           0.43531000         
H                    -2.37008000           0.52578000           1.15314000         
H                    -3.06419000           0.56145000          -0.59242000         
H                    -2.60622000          -1.08721000           0.19468000         
H                     0.37652000          -1.32948000           1.06066000         
H                     0.74093000          -2.16882000          -0.46329000         
15
Image 7 energy:-0.01240 
C                     1.01954000           1.26998000           0.19714000         
C                     0.70821000           0.01406000          -0.62704000         
C                     0.98590000          -1.28341000           0.14376000         
C                    -2.66069000           0.00075000           0.24160000         
H                     0.41799000           1.29277000           1.11922000         
H                     0.80156000           2.18833000          -0.36915000         
H                     2.07900000           1.29993000           0.49018000         
H                    -0.35433000           0.03438000          -0.92591000         
H                     1.29427000           0.02681000          -1.55832000         
H                     2.04478000          -1.35348000           0.43297000         
H                    -2.34882000           0.48858000           1.16108000         
H                    -3.05651000           0.59011000          -0.59188000         
H                    -2.63908000          -1.08326000           0.16905000         
H                     0.38542000          -1.32791000           1.06426000         
H                     0.74523000          -2.17259000          -0.46119000         
15
Image 8 energy:-0.01239 
C                     1.01721000           1.27023000           0.19467000         
C                     0.70629000           0.01244000          -0.62533000         
C                     0.99015000          -1.28331000           0.14459000         
C                    -2.66218000           0.00191000           0.23924000         
H                     0.41864000           1.29105000           1.11887000         
H                     0.79483000           2.18828000          -0.36927000         
H                     2.08052000           1.30046000           0.48945000         
H                    -0.35659000           0.03289000          -0.92059000         
H                     1.29651000           0.02398000          -1.55874000         
H                     2.05221000          -1.35178000           0.43496000         
H                    -2.32795000           0.46559000           1.16737000         
H                    -3.03765000           0.62183000          -0.56408000         
H                    -2.66670000          -1.08815000           0.14800000         
H                     0.38973000          -1.32907000           1.06746000         
H                     0.74364000          -2.17016000          -0.45595000         
15
Image 9 energy:-0.01241 
C                     1.01543000           1.27046000           0.19398000         
C                     0.70803000           0.01134000          -0.62671000         
C                     0.99187000          -1.28297000           0.14690000         
C                    -2.66286000           0.00166000           0.24125000         
H                     0.41587000           1.28993000           1.11742000         
H                     0.79217000           2.18825000          -0.37023000         
H                     2.07594000           1.30604000           0.48536000         
H                    -0.35423000           0.02742000          -0.92582000         
H                     1.29715000           0.02376000          -1.55850000         
H                     2.05177000          -1.35012000           0.43472000         
H                    -2.30685000           0.43522000           1.17421000         
H                    -3.02930000           0.64702000          -0.56236000         
H                    -2.70839000          -1.07380000           0.12136000         
H                     0.39073000          -1.32637000           1.06933000         
H                     0.75032000          -2.17308000          -0.45476000         
15
Image 10 energy:-0.01241 
C                     1.01392000           1.27090000           0.19251000         
C                     0.70922000           0.01027000          -0.62646000         
C                     0.99365000          -1.28278000           0.14799000         
C                    -2.66568000           0.00294000           0.23998000         
H                     0.41174000           1.29389000           1.11479000         
H                     0.78951000           2.18546000          -0.37671000         
H                     2.07375000           1.30709000           0.48699000         
H                    -0.35317000           0.02192000          -0.92608000         
H                     1.29737000           0.02329000          -1.55753000         
H                     2.05514000          -1.34791000           0.43779000         
H                    -2.28322000           0.40287000           1.17761000         
H                    -3.01592000           0.67895000          -0.53220000         
H                    -2.73296000          -1.08128000           0.10268000         
H                     0.39573000          -1.32532000           1.07001000         
H                     0.75350000          -2.17489000          -0.44993000         
15
Image 11 energy:-0.01242 
C                     1.00985000           1.27110000           0.19026000         
C                     0.70960000           0.00884000          -0.62682000         
C                     0.99653000          -1.28280000           0.15002000         
C                    -2.66448000           0.00303000           0.24157000         
H                     0.40927000           1.29245000           1.11099000         
H                     0.78726000           2.18645000          -0.37888000         
H                     2.07269000           1.30787000           0.49107000         
H                    -0.35233000           0.02334000          -0.92639000         
H                     1.30362000           0.01974000          -1.55816000         
H                     2.05565000          -1.34472000           0.44075000         
H                    -2.26161000           0.37337000           1.18266000         
H                    -3.00858000           0.70302000          -0.52069000         
H                    -2.76715000          -1.06218000           0.07176000         
H                     0.39045000          -1.32814000           1.07143000         
H                     0.75748000          -2.17331000          -0.44919000         
15
Image 12 energy:-0.01240 
C                     1.01102000           1.27175000           0.18929000         
C                     0.71267000           0.00792000          -0.62798000         
C                     0.99641000          -1.28222000           0.15170000         
C                    -2.66894000           0.00328000           0.24155000         
H                     0.39897000           1.29356000           1.10906000         
H                     0.78773000           2.18518000          -0.38012000         
H                     2.06567000           1.31370000           0.48447000         
H                    -0.34859000           0.01868000          -0.93282000         
H                     1.30416000           0.01884000          -1.55683000         
H                     2.05730000          -1.34214000           0.45185000         
H                    -2.23817000           0.34028000           1.18485000         
H                    -3.00215000           0.73081000          -0.49403000         
H                    -2.79318000          -1.06550000           0.05522000         
H                     0.39402000          -1.32577000           1.06903000         
H                     0.76509000          -2.17633000          -0.44957000         
15
Image 13 energy:-0.01241 
C                     1.00588000           1.27213000           0.18733000         
C                     0.71433000           0.00682000          -0.62895000         
C                     0.99929000          -1.28199000           0.15292000         
C                    -2.66812000           0.00350000           0.24320000         
H                     0.40116000           1.29992000           1.10152000         
H                     0.79105000           2.18552000          -0.38900000         
H                     2.06655000           1.30899000           0.50083000         
H                    -0.34612000           0.01167000          -0.93418000         
H                     1.31075000           0.01878000          -1.55680000         
H                     2.05506000          -1.34195000           0.45210000         
H                    -2.22601000           0.30879000           1.18492000         
H                    -2.99159000           0.75619000          -0.47408000         
H                    -2.82391000          -1.05240000           0.03141000         
H                     0.38330000          -1.32587000           1.06914000         
H                     0.76780000          -2.17510000          -0.44424000         
15
Image 14 energy:-0.01241 
C                     1.00797000           1.27258000           0.18568000         
C                     0.71612000           0.00634000          -0.62926000         
C                     0.99824000          -1.28151000           0.15482000         
C                    -2.67121000           0.00249000           0.24358000         
H                     0.38566000           1.30088000           1.09871000         
H                     0.79027000           2.18237000          -0.39186000         
H                     2.06180000           1.31133000           0.49473000         
H                    -0.34373000           0.01528000          -0.93971000         
H                     1.31551000           0.01581000          -1.55575000         
H                     2.05509000          -1.33402000           0.46451000         
H                    -2.19648000           0.27957000           1.18875000         
H                    -2.99584000           0.77799000          -0.44782000         
H                    -2.84590000          -1.04238000           0.00529000         
H                     0.38674000          -1.32790000           1.06585000         
H                     0.77816000          -2.17774000          -0.44483000         
15
Image 15 energy:-0.01241 
C                     1.00337000           1.27244000           0.18373000         
C                     0.71966000           0.00448000          -0.63163000         
C                     1.00112000          -1.28109000           0.15708000         
C                    -2.67243000           0.00531000           0.24511000         
H                     0.38769000           1.29783000           1.09276000         
H                     0.79240000           2.18591000          -0.39444000         
H                     2.05849000           1.31358000           0.50254000         
H                    -0.33893000           0.01261000          -0.94430000         
H                     1.32029000           0.01279000          -1.55557000         
H                     2.05396000          -1.33188000           0.47300000         
H                    -2.18960000           0.23788000           1.18688000         
H                    -2.99419000           0.80194000          -0.42099000         
H                    -2.86570000          -1.03893000          -0.01366000         
H                     0.37397000          -1.32831000           1.06395000         
H                     0.78563000          -2.17705000          -0.44599000         
15
Image 16 energy:-0.01243 
C                     1.00361000           1.27343000           0.18225000         
C                     0.72313000           0.00429000          -0.63232000         
C                     1.00081000          -1.28079000           0.15744000         
C                    -2.67565000           0.00242000           0.24709000         
H                     0.37471000           1.30383000           1.08715000         
H                     0.79285000           2.18218000          -0.40017000         
H                     2.05432000           1.31519000           0.50504000         
H                    -0.33371000           0.00254000          -0.95120000         
H                     1.33058000           0.01403000          -1.55373000         
H                     2.05367000          -1.33090000           0.48373000         
H                    -2.17029000           0.21832000           1.18831000         
H                    -2.98285000           0.82631000          -0.39688000         
H                    -2.89872000          -1.01967000          -0.03866000         
H                     0.37246000          -1.32624000           1.06027000         
H                     0.78911000          -2.17789000          -0.44158000         
15
Image 17 energy:-0.01242 
C                     1.00205000           1.27393000           0.17976000         
C                     0.72727000           0.00300000          -0.63373000         
C                     1.00245000          -1.28101000           0.16016000         
C                    -2.68015000           0.00489000           0.24835000         
H                     0.37095000           1.30662000           1.08052000         
H                     0.79566000           2.18114000          -0.40551000         
H                     2.05325000           1.31416000           0.51310000         
H                    -0.32887000           0.00949000          -0.95771000         
H                     1.33762000           0.01113000          -1.55216000         
H                     2.04968000          -1.32781000           0.48668000         
H                    -2.15916000           0.17747000           1.18863000         
H                    -2.99691000           0.84428000          -0.36543000         
H                    -2.90522000          -1.01695000          -0.06165000         
H                     0.36864000          -1.32920000           1.05798000         
H                     0.79974000          -2.18007000          -0.44314000         
15
Image 18 energy:-0.01242 
C                     1.00156000           1.27421000           0.17854000         
C                     0.72860000           0.00182000          -0.63488000         
C                     1.00418000          -1.28012000           0.16091000         
C                    -2.68162000           0.00381000           0.24982000         
H                     0.36439000           1.30670000           1.07803000         
H                     0.80024000           2.18446000          -0.41185000         
H                     2.04867000           1.31700000           0.50923000         
H                    -0.32551000           0.00020000          -0.96069000         
H                     1.34284000           0.00781000          -1.55114000         
H                     2.05334000          -1.32239000           0.50437000         
H                    -2.15533000           0.14660000           1.18683000         
H                    -2.98725000           0.86972000          -0.33674000         
H                    -2.93579000          -0.99829000          -0.08846000         
H                     0.36068000          -1.33044000           1.05482000         
H                     0.80607000          -2.17810000          -0.44142000         
15
Image 19 energy:-0.01236 
C                     1.00262000           1.27494000           0.17499000         
C                     0.73181000           0.00122000          -0.63397000         
C                     1.00578000          -1.27996000           0.16334000         
C                    -2.68898000           0.00370000           0.24977000         
H                     0.37160000           1.30913000           1.07250000         
H                     0.79540000           2.17881000          -0.40930000         
H                     2.05307000           1.31924000           0.51376000         
H                    -0.32167000           0.00178000          -0.96629000         
H                     1.34740000           0.00778000          -1.54840000         
H                     2.05003000          -1.32046000           0.50045000         
H                    -2.13786000           0.11517000           1.18947000         
H                    -2.99356000           0.88874000          -0.30646000         
H                    -2.94982000          -0.98880000          -0.11396000         
H                     0.36337000          -1.32995000           1.05560000         
H                     0.81211000          -2.18025000          -0.44117000         
15
Image 20 energy:-0.01240 
C                     1.00338000           1.27543000           0.17443000         
C                     0.73069000           0.00045000          -0.63508000         
C                     1.00700000          -1.27934000           0.16510000         
C                    -2.68792000           0.00389000           0.24984000         
H                     0.36325000           1.31370000           1.07425000         
H                     0.80173000           2.18044000          -0.42113000         
H                     2.05112000           1.31715000           0.50423000         
H                    -0.32300000          -0.00024000          -0.96124000         
H                     1.34704000           0.00642000          -1.55104000         
H                     2.05368000          -1.31918000           0.50798000         
H                    -2.15201000           0.07205000           1.18620000         
H                    -2.99165000           0.90734000          -0.27368000         
H                    -2.96343000          -0.97371000          -0.14476000         
H                     0.36491000          -1.32827000           1.05787000         
H                     0.81544000          -2.18083000          -0.43436000         
15
Image 21 energy:-0.01241 
C                     1.00604000           1.27566000           0.17235000         
C                     0.72888000          -0.00075000          -0.63321000         
C                     1.01225000          -1.27880000           0.16701000         
C                    -2.69591000           0.00345000           0.24768000         
H                     0.38221000           1.31235000           1.07712000         
H                     0.79757000           2.18171000          -0.41858000         
H                     2.05947000           1.32154000           0.49751000         
H                    -0.32764000          -0.00371000          -0.95780000         
H                     1.33858000           0.00213000          -1.55159000         
H                     2.06080000          -1.31264000           0.50475000         
H                    -2.14351000           0.04759000           1.18889000         
H                    -2.98811000           0.92627000          -0.24853000         
H                    -2.98238000          -0.95780000          -0.17224000         
H                     0.37150000          -1.33153000           1.06319000         
H                     0.82109000          -2.18073000          -0.43282000         
15
Image 22 energy:-0.01241 
C                     1.01332000           1.27618000           0.17003000         
C                     0.72373000          -0.00065000          -0.62867000         
C                     1.01546000          -1.27798000           0.16815000         
C                    -2.69988000           0.00263000           0.24501000         
H                     0.39237000           1.31657000           1.08197000         
H                     0.79349000           2.17682000          -0.41688000         
H                     2.06877000           1.31896000           0.48173000         
H                    -0.33336000          -0.00136000          -0.94321000         
H                     1.32772000           0.00141000          -1.55337000         
H                     2.06633000          -1.30827000           0.49309000         
H                    -2.16705000           0.02227000           1.18736000         
H                    -2.99420000           0.93333000          -0.23330000         
H                    -2.98836000          -0.94957000          -0.19490000         
H                     0.38758000          -1.33055000           1.06969000         
H                     0.82008000          -2.18173000          -0.43079000         
15
Image 23 energy:-0.01243 
C                     1.01509000           1.27612000           0.17094000         
C                     0.71809000          -0.00068000          -0.62607000         
C                     1.01861000          -1.27750000           0.16906000         
C                    -2.70043000           0.00187000           0.24039000         
H                     0.41798000           1.31075000           1.09462000         
H                     0.78796000           2.18259000          -0.41841000         
H                     2.07688000           1.32301000           0.46087000         
H                    -0.34614000          -0.00244000          -0.92212000         
H                     1.30269000           0.00108000          -1.56062000         
H                     2.07628000          -1.31696000           0.47856000         
H                    -2.16737000           0.01106000           1.19075000         
H                    -2.98362000           0.94002000          -0.23005000         
H                    -2.98484000          -0.94470000          -0.21246000         
H                     0.40300000          -1.32107000           1.08314000         
H                     0.80571000          -2.18097000          -0.42040000         
15
Image 24 energy:-0.01242 
C                     1.02144000           1.27690000           0.16966000         
C                     0.71075000          -0.00065000          -0.62235000         
C                     1.02197000          -1.27773000           0.17038000         