16
Image 1 energy:-0.04520 
C                    -1.47619000           0.87897000          -0.20521000         
C                    -0.54826000          -0.15360000           0.48977000         
C                    -0.60362000          -1.50613000          -0.24500000         
C                     0.84595000           0.39495000           0.62293000         
C                     1.83337000           0.39655000          -0.49973000         
H                    -2.51134000           0.49694000          -0.27403000         
H                    -1.12322000           1.08960000          -1.22875000         
H                    -1.49423000           1.82961000           0.35487000         
H                    -0.95089000          -0.30699000           1.50737000         
H                    -0.22349000          -1.41362000          -1.27983000         
H                    -1.64597000          -1.87526000          -0.30216000         
H                     0.01126000          -2.26532000           0.27814000         
H                     1.02724000           1.08391000           1.45387000         
H                     1.54078000           1.10614000          -1.31498000         
H                     2.83750000           0.70960000          -0.15067000         
H                     1.92207000          -0.58236000          -0.98180000         
16
Image 2 energy:-0.04549 
C                    -1.47234000           0.87934000          -0.21523000         
C                    -0.54935000          -0.15061000           0.49139000         
C                    -0.60262000          -1.50518000          -0.24381000         
C                     0.84771000           0.39181000           0.63084000         
C                     1.82693000           0.39897000          -0.49933000         
H                    -2.49975000           0.49549000          -0.29975000         
H                    -1.10554000           1.09140000          -1.22888000         
H                    -1.50480000           1.82745000           0.33819000         
H                    -0.95321000          -0.30371000           1.50779000         
H                    -0.33675000          -1.39554000          -1.30450000         
H                    -1.61512000          -1.92870000          -0.20075000         
H                     0.09051000          -2.22860000           0.20509000         
H                     1.04193000           1.05628000           1.47696000         
H                     1.55165000           1.12281000          -1.29389000         
H                     2.83394000           0.67600000          -0.15791000         
H                     1.89792000          -0.58360000          -0.99340000         
16
Image 3 energy:-0.04495 
C                    -1.46951000           0.88407000          -0.21858000         
C                    -0.55042000          -0.14888000           0.49295000         
C                    -0.60157000          -1.50412000          -0.24253000         
C                     0.84673000           0.39096000           0.63176000         
C                     1.82523000           0.39207000          -0.49825000         
H                    -2.48190000           0.47135000          -0.37520000         
H                    -1.05858000           1.14672000          -1.20564000         
H                    -1.55923000           1.80817000           0.37578000         
H                    -0.95703000          -0.30055000           1.50964000         
H                    -0.39610000          -1.37817000          -1.31853000         
H                    -1.60006000          -1.96299000          -0.14350000         
H                     0.14650000          -2.20690000           0.16511000         
H                     1.05464000           1.03517000           1.49081000         
H                     1.51296000           1.08162000          -1.31560000         
H                     2.82850000           0.71726000          -0.17740000         
H                     1.90954000          -0.57959000          -0.97433000         
16
Image 4 energy:-0.04506 
C                    -1.47118000           0.87863000          -0.21047000         
C                    -0.54800000          -0.15106000           0.49056000         
C                    -0.60554000          -1.50491000          -0.24440000         
C                     0.84822000           0.39309000           0.62923000         
C                     1.82594000           0.40012000          -0.50238000         
H                    -2.49315000           0.48101000          -0.33367000         
H                    -1.07410000           1.12780000          -1.21123000         
H                    -1.53017000           1.81432000           0.36702000         
H                    -0.95414000          -0.30382000           1.50502000         
H                    -0.31591000          -1.40325000          -1.29662000         
H                    -1.62150000          -1.91295000          -0.22312000         
H                     0.06653000          -2.23481000           0.21990000         
H                     1.03994000           1.05982000           1.47461000         
H                     1.53318000           1.09003000          -1.32055000         
H                     2.81933000           0.71539000          -0.15916000         
H                     1.94124000          -0.62254000          -0.95755000         
16
Image 5 energy:-0.04529 
C                    -1.47899000           0.87808000          -0.20880000         
C                    -0.54853000          -0.15247000           0.48818000         
C                    -0.60605000          -1.50861000          -0.24200000         
C                     0.84897000           0.39387000           0.62428000         
C                     1.83754000           0.40009000          -0.49865000         
H                    -2.50526000           0.49036000          -0.27953000         
H                    -1.13058000           1.08901000          -1.22746000         
H                    -1.50681000           1.82603000           0.34636000         
H                    -0.94663000          -0.30649000           1.50744000         
H                    -0.25711000          -1.41632000          -1.28379000         
H                    -1.64217000          -1.88316000          -0.27281000         
H                     0.01648000          -2.26166000           0.26298000         
H                     1.02969000           1.08191000           1.45548000         
H                     1.56462000           1.14259000          -1.29276000         
H                     2.85370000           0.67266000          -0.14735000         
H                     1.89384000          -0.56539000          -1.00965000         
16
Image 6 energy:-0.04523 
C                    -1.48340000           0.87298000          -0.20844000         
C                    -0.54792000          -0.15324000           0.48828000         
C                    -0.60784000          -1.50873000          -0.24137000         
C                     0.84567000           0.39820000           0.61780000         
C                     1.84279000           0.40557000          -0.49696000         
H                    -2.52295000           0.50888000          -0.22928000         
H                    -1.15884000           1.04598000          -1.24612000         
H                    -1.47043000           1.83841000           0.31488000         
H                    -0.94104000          -0.30524000           1.51002000         
H                    -0.26696000          -1.41761000          -1.28726000         
H                    -1.64156000          -1.89447000          -0.26149000         
H                     0.03302000          -2.25647000           0.26054000         
H                     1.02511000           1.08672000           1.44966000         
H                     1.64453000           1.19981000          -1.23763000         
H                     2.85027000           0.57240000          -0.11889000         
H                     1.86194000          -0.55447000          -1.05117000         
16
Image 7 energy:-0.04518 
C                    -1.47990000           0.87385000          -0.21792000         
C                    -0.54893000          -0.14910000           0.48827000         
C                    -0.60256000          -1.50670000          -0.24310000         
C                     0.84845000           0.39471000           0.62966000         
C                     1.83330000           0.40028000          -0.49419000         
H                    -2.52460000           0.51781000          -0.21802000         
H                    -1.17034000           1.01881000          -1.26609000         
H                    -1.44970000           1.85411000           0.28514000         
H                    -0.94844000          -0.29951000           1.50600000         
H                    -0.36467000          -1.39651000          -1.30660000         
H                    -1.60617000          -1.93962000          -0.17822000         
H                     0.10376000          -2.22191000           0.18753000         
H                     1.03483000           1.06409000           1.47226000         
H                     1.63420000           1.20474000          -1.23080000         
H                     2.86889000           0.57834000          -0.12864000         
H                     1.82273000          -0.53570000          -1.06004000         
16
Image 8 energy:-0.04502 
C                    -1.47155000           0.87920000          -0.21998000         
C                    -0.55139000          -0.15016000           0.49059000         
C                    -0.60380000          -1.50769000          -0.24070000         
C                     0.84407000           0.39313000           0.62784000         
C                     1.83210000           0.40218000          -0.49513000         
H                    -2.49906000           0.50000000          -0.29909000         
H                    -1.10911000           1.07575000          -1.23417000         
H                    -1.49933000           1.83154000           0.32132000         
H                    -0.95140000          -0.30152000           1.50838000         
H                    -0.42764000          -1.38243000          -1.32521000         
H                    -1.59627000          -1.97573000          -0.11374000         
H                     0.16094000          -2.20070000           0.15259000         
H                     1.04497000           1.04678000           1.48298000         
H                     1.59338000           1.17962000          -1.26167000         
H                     2.84159000           0.59280000          -0.13511000         
H                     1.85344000          -0.56444000          -1.03241000         
16
Image 9 energy:-0.04509 
C                    -1.47289000           0.88060000          -0.21768000         
C                    -0.54933000          -0.14870000           0.49145000         
C                    -0.60135000          -1.50513000          -0.24111000         
C                     0.84937000           0.39142000           0.63235000         
C                     1.82315000           0.39464000          -0.50145000         
H                    -2.49139000           0.47665000          -0.35226000         
H                    -1.06673000           1.13409000          -1.21364000         
H                    -1.54603000           1.81310000           0.36345000         
H                    -0.95447000          -0.30228000           1.50828000         
H                    -0.36641000          -1.39463000          -1.31405000         
H                    -1.60999000          -1.94678000          -0.16630000         
H                     0.11835000          -2.21838000           0.19366000         
H                     1.04265000           1.05755000           1.47653000         
H                     1.56842000           1.13554000          -1.27413000         
H                     2.84653000           0.67113000          -0.15900000         
H                     1.87620000          -0.57869000          -1.00995000         
16
Image 10 energy:-0.04518 
C                    -1.47618000           0.87638000          -0.20726000         
C                    -0.54790000          -0.15212000           0.48969000         
C                    -0.60632000          -1.50597000          -0.24296000         
C                     0.84564000           0.39806000           0.62295000         
C                     1.83752000           0.39800000          -0.49845000         
H                    -2.49812000           0.47203000          -0.32002000         
H                    -1.09805000           1.11709000          -1.21532000         
H                    -1.53195000           1.81411000           0.37256000         
H                    -0.95017000          -0.30318000           1.50720000         
H                    -0.28632000          -1.40827000          -1.28725000         
H                    -1.63030000          -1.89526000          -0.24994000         
H                     0.04043000          -2.24726000           0.23988000         
H                     1.03191000           1.08242000           1.45681000         
H                     1.55787000           1.12557000          -1.30949000         
H                     2.83720000           0.65524000          -0.15097000         
H                     1.89938000          -0.58324000          -0.99590000         
16
Image 11 energy:-0.04527 
C                    -1.48919000           0.87519000          -0.20261000         
C                    -0.54769000          -0.15163000           0.48613000         
C                    -0.60445000          -1.50695000          -0.24578000         
C                     0.84870000           0.39916000           0.61853000         
C                     1.84277000           0.39606000          -0.49663000         
H                    -2.52444000           0.50834000          -0.22595000         
H                    -1.16896000           1.05846000          -1.23748000         
H                    -1.47845000           1.83793000           0.32582000         
H                    -0.94164000          -0.30735000           1.50709000         
H                    -0.23462000          -1.41666000          -1.28016000         
H                    -1.64280000          -1.87673000          -0.29657000         
H                     0.00644000          -2.26501000           0.27079000         
H                     1.01934000           1.10244000           1.43950000         
H                     1.60732000           1.15099000          -1.26966000         
H                     2.85916000           0.64960000          -0.12404000         
H                     1.90169000          -0.58293000          -1.01013000         
16
Image 12 energy:-0.04515 
C                    -1.49448000           0.86963000          -0.20118000         
C                    -0.54755000          -0.15118000           0.48317000         
C                    -0.60525000          -1.50655000          -0.24725000         
C                     0.84390000           0.40744000           0.61428000         
C                     1.85451000           0.39701000          -0.49014000         
H                    -2.54247000           0.52115000          -0.16344000         
H                    -1.20864000           1.00719000          -1.25920000         
H                    -1.44082000           1.85126000           0.29393000         
H                    -0.93633000          -0.30816000           1.50569000         
H                    -0.26403000          -1.41839000          -1.29058000         
H                    -1.63682000          -1.89146000          -0.26985000         
H                     0.02946000          -2.25340000           0.25456000         
H                     1.01196000           1.10146000           1.44075000         
H                     1.66811000           1.19447000          -1.25385000         
H                     2.86347000           0.54804000          -0.10480000         
H                     1.84725000          -0.54684000          -1.04491000         
16
Image 13 energy:-0.04533 
C                    -1.49390000           0.86912000          -0.21158000         
C                    -0.54788000          -0.14710000           0.48775000         
C                    -0.60594000          -1.50379000          -0.24210000         
C                     0.84717000           0.40155000           0.61635000         
C                     1.84977000           0.39593000          -0.49151000         
H                    -2.52727000           0.48978000          -0.22888000         
H                    -1.18497000           1.03507000          -1.25328000         
H                    -1.49214000           1.84032000           0.30601000         
H                    -0.93703000          -0.29774000           1.51058000         
H                    -0.35494000          -1.39136000          -1.30666000         
H                    -1.61850000          -1.92565000          -0.18674000         
H                     0.09407000          -2.22715000           0.19705000         
H                     1.03683000           1.07840000           1.45549000         
H                     1.68930000           1.22130000          -1.20780000         
H                     2.87621000           0.53161000          -0.10306000         
H                     1.83227000          -0.54161000          -1.07482000         
16
Image 14 energy:-0.04522 
C                    -1.48336000           0.87556000          -0.21702000         
C                    -0.54883000          -0.14713000           0.48589000         
C                    -0.60485000          -1.50857000          -0.23926000         
C                     0.85205000           0.39357000           0.62956000         
C                     1.83712000           0.40051000          -0.49590000         
H                    -2.51204000           0.49360000          -0.29500000         
H                    -1.11637000           1.08811000          -1.23568000         
H                    -1.51034000           1.83009000           0.32801000         
H                    -0.94910000          -0.29821000           1.50582000         
H                    -0.37671000          -1.39644000          -1.31290000         
H                    -1.61395000          -1.95324000          -0.15681000         
H                     0.12127000          -2.22021000           0.19365000         
H                     1.03350000           1.07104000           1.46759000         
H                     1.62295000           1.20110000          -1.24694000         
H                     2.85686000           0.56058000          -0.13299000         
H                     1.82314000          -0.54240000          -1.05891000         
16
Image 15 energy:-0.04542 
C                    -1.46862000           0.87824000          -0.21128000         
C                    -0.54921000          -0.15524000           0.49154000         
C                    -0.60541000          -1.50915000          -0.24101000         
C                     0.84365000           0.39684000           0.62387000         
C                     1.82928000           0.40136000          -0.50072000         
H                    -2.49872000           0.49386000          -0.29409000         
H                    -1.10289000           1.09073000          -1.22558000         
H                    -1.49886000           1.82397000           0.34810000         
H                    -0.95024000          -0.30706000           1.50816000         
H                    -0.29217000          -1.41462000          -1.28995000         
H                    -1.62860000          -1.90466000          -0.23931000         
H                     0.04794000          -2.24641000           0.24106000         
H                     1.02544000           1.08803000           1.45310000         
H                     1.59020000           1.16753000          -1.26553000         
H                     2.84817000           0.63184000          -0.14257000         
H                     1.86799000          -0.56669000          -1.02702000         
16
Image 16 energy:-0.04529 
C                    -1.49379000           0.87409000          -0.20425000         
C                    -0.54736000          -0.14942000           0.48579000         
C                    -0.60500000          -1.50580000          -0.24526000         
C                     0.85254000           0.39852000           0.62192000         
C                     1.84661000           0.39593000          -0.49628000         
H                    -2.52531000           0.49924000          -0.23375000         
H                    -1.17148000           1.06269000          -1.23774000         
H                    -1.49337000           1.83579000           0.32617000         
H                    -0.93971000          -0.30642000           1.50867000         
H                    -0.23821000          -1.41428000          -1.28275000         
H                    -1.64508000          -1.87521000          -0.29370000         
H                     0.00779000          -2.26530000           0.27054000         
H                     1.02242000           1.10088000           1.44207000         
H                     1.60848000           1.15891000          -1.28181000         
H                     2.86040000           0.62207000          -0.12973000         
H                     1.88306000          -0.57707000          -1.01588000         
16
Image 17 energy:-0.04535 
C                    -1.48541000           0.87196000          -0.20540000         
C                    -0.54895000          -0.15231000           0.48627000         
C                    -0.60469000          -1.50657000          -0.24493000         
C                     0.84131000           0.40467000           0.61470000         
C                     1.84598000           0.39607000          -0.49204000         
H                    -2.53237000           0.51977000          -0.19375000         
H                    -1.18376000           1.02105000          -1.25594000         
H                    -1.44514000           1.84906000           0.30249000         
H                    -0.94188000          -0.30424000           1.50591000         
H                    -0.30718000          -1.40705000          -1.29682000         
H                    -1.62368000          -1.91347000          -0.22965000         
H                     0.06315000          -2.23742000           0.22610000         
H                     1.01823000           1.09619000           1.44439000         
H                     1.66397000           1.19568000          -1.23245000         
H                     2.86390000           0.56454000          -0.10771000         
H                     1.85033000          -0.54860000          -1.05098000         
16
Image 18 energy:-0.04531 
C                    -1.48420000           0.87575000          -0.21533000         
C                    -0.54932000          -0.14866000           0.48752000         
C                    -0.60474000          -1.50760000          -0.24066000         
C                     0.84936000           0.39784000           0.62534000         
C                     1.84020000           0.39725000          -0.49476000         
H                    -2.50922000           0.48806000          -0.28198000         
H                    -1.13656000           1.07676000          -1.23434000         
H                    -1.51244000           1.82892000           0.32642000         
H                    -0.94335000          -0.30158000           1.50875000         
H                    -0.37600000          -1.39485000          -1.31427000         
H                    -1.61295000          -1.94465000          -0.16041000         
H                     0.11651000          -2.22106000           0.19053000         
H                     1.02954000           1.08760000           1.45512000         
H                     1.64654000           1.21240000          -1.23244000         
H                     2.86845000           0.54445000          -0.12500000         
H                     1.81864000          -0.54952000          -1.06252000         
16
Image 19 energy:-0.04525 
C                    -1.47337000           0.87508000          -0.21245000         
C                    -0.54827000          -0.15280000           0.49170000         
C                    -0.60629000          -1.50848000          -0.23788000         
C                     0.84636000           0.39997000           0.62335000         
C                     1.83218000           0.39858000          -0.50170000         
H                    -2.49649000           0.47085000          -0.33456000         
H                    -1.07538000           1.12418000          -1.21411000         
H                    -1.53902000           1.80969000           0.37023000         
H                    -0.94772000          -0.30510000           1.50914000         
H                    -0.30266000          -1.41706000          -1.28921000         
H                    -1.62870000          -1.90842000          -0.22719000         
H                     0.05057000          -2.24434000           0.24017000         
H                     1.02550000           1.09752000           1.44728000         
H                     1.62762000           1.19556000          -1.24103000         
H                     2.85639000           0.57275000          -0.14186000         
H                     1.82728000          -0.54268000          -1.05977000         
16
Image 20 energy:-0.04534 
C                    -1.48364000           0.87866000          -0.20299000         
C                    -0.54972000          -0.15347000           0.48624000         
C                    -0.60374000          -1.50950000          -0.24312000         
C                     0.84541000           0.40142000           0.61802000         
C                     1.84222000           0.39550000          -0.49741000         
H                    -2.51451000           0.49839000          -0.25432000         
H                    -1.15187000           1.07729000          -1.22860000         
H                    -1.49123000           1.82995000           0.34398000         
H                    -0.94340000          -0.30723000           1.50714000         
H                    -0.24900000          -1.41519000          -1.28397000         
H                    -1.63968000          -1.88434000          -0.28018000         
H                     0.02249000          -2.25964000           0.26801000         
H                     1.01580000           1.10987000           1.43495000         
H                     1.61740000           1.16841000          -1.27185000         
H                     2.85880000           0.60954000          -0.12610000         
H                     1.87348000          -0.57717000          -1.02299000         
16
Image 21 energy:-0.04530 
C                    -1.49636000           0.86643000          -0.20312000         
C                    -0.54787000          -0.14875000           0.48577000         
C                    -0.60538000          -1.50039000          -0.24867000         
C                     0.84518000           0.40670000           0.61412000         
C                     1.85335000           0.39029000          -0.49050000         
H                    -2.54247000           0.52372000          -0.17102000         
H                    -1.20216000           1.01778000          -1.25316000         
H                    -1.45102000           1.84757000           0.30201000         
H                    -0.93792000          -0.30339000           1.50620000         
H                    -0.28618000          -1.41049000          -1.29622000         
H                    -1.62723000          -1.90565000          -0.24767000         
H                     0.05255000          -2.23539000           0.23604000         
H                     1.01466000           1.10888000           1.43529000         
H                     1.67185000           1.18984000          -1.24272000         
H                     2.87134000           0.55694000          -0.10124000         
H                     1.85413000          -0.55972000          -1.04401000         
16
Image 22 energy:-0.04522 
C                    -1.49528000           0.88374000          -0.20076000         
C                    -0.55135000          -0.15034000           0.47786000         
C                    -0.59592000          -1.51538000          -0.24344000         
C                     0.83785000           0.41184000           0.60906000         
C                     1.85300000           0.38739000          -0.48667000         
H                    -2.53522000           0.51818000          -0.20622000         
H                    -1.19898000           1.04976000          -1.24767000         
H                    -1.46613000           1.84713000           0.31969000         
H                    -0.93916000          -0.30762000           1.50274000         
H                    -0.36883000          -1.40554000          -1.31593000         
H                    -1.60091000          -1.95677000          -0.16581000         
H                     0.12438000          -2.22359000           0.19084000         
H                     1.00665000           1.11115000           1.43215000         