ITEM: TIMESTEP
10000
ITEM: NUMBER OF ATOMS
1040
ITEM: BOX BOUNDS pp pp pp
-3.1000000000000001e+00 2.1700000000000003e+01
-6.9095259441535461e+01 8.1495259441535467e+01
-3.1000000000000001e+00 2.1700000000000003e+01
ITEM: ATOMS id type x y z
1 13 -0.324369 -0.163614 6.80885
2 5 2.74921 -0.00417152 7.15813
3 5 -0.726862 -3.25546 6.8253
4 5 -0.454922 -0.228276 10.0539
5 12 3.53869 -2.29812 9.87543
6 6 2.86997 -7.15881 8.57257
7 4 3.40585 -2.37035 8.85441
8 4 4.55655 -2.40102 10.0411
9 4 3.29566 -1.32581 10.1282
10 10 2.69777 -3.33833 10.6042
11 3 3.00561 -3.37528 11.657
12 3 1.6649 -2.97612 10.5876
13 7 3.99287 -5.33896 9.74632
14 6 4.04985 -6.55114 9.03959
15 8 2.75827 -4.70238 9.9547
16 7 1.58368 -5.30514 9.49054
17 6 1.63592 -6.52726 8.80198
18 1 4.90414 -4.83984 10.0764
19 1 5.01752 -6.99431 8.82546
20 1 0.636419 -4.78448 9.60492
21 1 2.91015 -8.07362 7.98915
22 1 0.720471 -6.92868 8.37518
23 13 -0.135866 -0.0718112 13.1947
24 5 2.94851 -0.00682475 12.7915
25 5 -0.116727 -3.12006 13.5628
26 5 0.0674346 0.0893494 16.216
27 12 3.10212 -2.26254 15.585
28 6 4.12906 -7.16122 15.5806
29 4 2.66172 -2.49282 14.6784
30 4 4.11812 -2.29105 15.4099
31 4 2.85243 -1.27885 15.7975
32 10 2.69597 -3.23216 16.6696
33 3 3.0477 -2.85846 17.6407
34 3 1.60559 -3.23147 16.6714
35 7 4.58193 -4.89583 16.328
36 6 5.05002 -6.16546 15.952
37 8 3.20605 -4.62659 16.3594
38 7 2.28941 -5.62522 15.9926
39 6 2.74865 -6.89255 15.5983
40 1 5.2966 -4.10258 16.5394
41 1 6.12252 -6.34291 15.9
42 1 1.22742 -5.38613 15.9776
43 1 4.49335 -8.1291 15.2535
44 1 2.03522 -7.6492 15.2887
45 13 -0.0157835 0.115772 19.3003
46 5 2.97636 0.165374 19.5468
47 5 -0.217134 -2.92657 19.3877
48 5 -0.466329 0.103073 -2.3547
49 12 3.4666 -2.26154 -2.48628
50 6 2.77183 -7.39817 -2.24174
51 4 3.39826 -2.35625 21.2866
52 4 4.44237 -2.50157 -2.2313
53 4 3.35136 -1.25107 -2.28875
54 10 2.43274 -3.11572 -1.76341
55 3 2.5359 -2.87015 -0.705618
56 3 1.43189 -2.79749 -2.0817
57 7 2.52559 -5.44848 -0.804067
58 6 2.61152 -6.84349 -0.958429
59 8 2.58705 -4.61311 -1.9283
60 7 2.78537 -5.17299 21.5988
61 6 2.91217 -6.55636 21.4411
62 1 2.40777 -5.01132 0.18866
63 1 2.54792 -7.48251 -0.0819595
64 1 2.82803 -4.51634 20.7279
65 1 2.83612 -8.47485 -2.35977
66 1 3.07743 -6.96565 20.4477
67 13 -0.31901 0.203572 0.709691
68 5 2.91945 0.29043 0.592547
69 5 -0.309632 -2.92056 0.998693
70 5 -0.256477 -0.0389667 3.82306
71 12 2.84905 -2.26834 3.23023
72 6 2.97001 -7.33092 3.77454
73 4 2.511 -2.47598 2.27332
74 4 3.87516 -2.37348 3.21963
75 4 2.66901 -1.26032 3.38347
76 10 2.19081 -3.14011 4.28958
77 3 2.47879 -2.78601 5.28531
78 3 1.11757 -3.00638 4.16177
79 7 3.80331 -5.08002 4.15354
80 6 4.04453 -6.44904 3.98852
81 8 2.48499 -4.60212 4.149
82 7 1.41358 -5.47087 3.96724
83 6 1.6536 -6.83689 3.76523
84 1 4.62285 -4.37415 4.2895
85 1 5.06256 -6.81992 4.01242
86 1 0.394941 -5.07903 3.95937
87 1 3.15871 -8.38889 3.6251
88 1 0.812554 -7.49959 3.58675
89 13 -0.202909 5.9772 6.93953
90 5 2.9132 5.96459 7.04166
91 5 -0.261353 2.8788 7.03031
92 5 -0.178156 6.08384 10.0532
93 11 2.1807 2.57086 9.59916
94 9 3.19754 3.38529 10.3835
95 2 3.04344 4.4524 10.1911
96 2 4.2147 3.11725 10.0756
97 2 3.07731 3.18408 11.452
98 4 2.30155 2.70163 8.57804
99 4 1.2017 2.83025 9.82517
100 4 2.25302 1.55491 9.78299
101 13 -0.0673466 5.84859 13.1558
102 5 2.91916 6.01462 13.3192
103 5 -0.0803831 2.81318 12.9362
104 5 -0.171239 6.09791 16.1648
105 11 3.72869 3.76897 16.495
106 9 2.75002 2.83635 15.8049
107 2 2.94809 2.81562 14.7304
108 2 1.72319 3.17671 15.9834
109 2 2.877 1.83385 16.2161
110 4 3.66723 4.73869 16.1362
111 4 4.71235 3.46141 16.3789
112 4 3.54584 3.80224 17.5109
113 13 -0.214904 6.19561 19.2728
114 5 3.03556 6.33372 18.9378
115 5 -0.177274 3.05852 19.2634
116 5 -0.202086 6.27142 -2.40857
117 11 3.74028 2.9612 -1.89193
118 9 2.7114 3.54675 -2.84352
119 2 2.93909 3.27313 20.9228
120 2 2.7453 4.63767 -2.75563
121 2 1.7108 3.19041 -2.57218
122 4 4.69368 3.32107 -2.08477
123 4 3.78373 1.93169 -1.9562
124 4 3.52804 3.19061 -0.903523
125 13 -0.052578 6.24122 0.677503
126 5 3.14249 6.18595 0.561184
127 5 0.052819 3.21 0.826917
128 5 0.0789198 6.16139 3.79393
129 11 3.30443 3.65174 3.17503
130 9 2.58251 2.73201 4.14898
131 2 2.97498 2.87715 5.16139
132 2 2.70375 1.68875 3.85408
133 2 1.51409 2.96533 4.1285
134 4 4.32514 3.4785 3.13776
135 4 3.1736 4.65195 3.41865
136 4 2.94216 3.54304 2.20957
137 13 -0.0851762 12.1952 6.97915
138 5 3.1185 12.1562 6.79784
139 5 -0.307124 9.07286 6.82539
140 5 -0.099652 12.0303 9.98955
141 5 0.124144 15.2259 7.11187
142 11 3.65322 9.51411 9.42429
143 9 2.73767 8.69754 10.3371
144 2 2.93672 8.93503 11.3872
145 2 2.89828 7.62806 10.1701
146 2 1.6938 8.93569 10.1066
147 4 4.65631 9.28565 9.56293
148 4 3.56657 10.5348 9.56992
149 4 3.46668 9.33489 8.42012
150 12 2.60225 14.5355 9.76022
151 6 3.78454 19.4219 8.95501
152 4 2.68896 14.6025 8.72993
153 4 1.62726 14.8164 9.979
154 4 2.67126 13.5339 10.0101
155 10 3.63741 15.3946 10.4934
156 3 3.41505 15.3796 11.5655
157 3 4.61773 14.9219 10.3677
158 7 2.49816 17.4901 9.66486
159 6 2.54382 18.7961 9.15831
160 8 3.68894 16.8271 10.003
161 7 4.92288 17.4749 9.86043
162 6 4.97878 18.7685 9.32138
163 1 1.54204 16.9821 9.79401
164 1 1.6214 19.2879 8.86343
165 1 5.84621 16.9501 10.1106
166 1 3.82873 20.4101 8.51019
167 1 5.94818 19.2285 9.15088
168 13 0.094254 12.1702 12.9511
169 5 3.24015 12.0866 12.873
170 5 -0.129181 9.06789 13.1804
171 5 0.18361 12.2304 16.0366
172 5 0.282184 15.1972 12.8834
173 11 2.4572 8.67808 15.7818
174 9 3.42055 9.55616 16.5743
175 2 3.19967 9.47442 17.6406
176 2 3.29698 10.5959 16.2628
177 2 4.45347 9.24119 16.3973
178 4 1.46599 8.89579 15.9982
179 4 2.57561 7.67284 16.0057
180 4 2.58233 8.76765 14.7575
181 12 3.04 14.4778 15.6923
182 6 2.0306 19.222 14.8696
183 4 3.61077 14.5517 14.8309
184 4 2.05209 14.5226 15.3849
185 4 3.19793 13.527 16.0756
186 10 3.39132 15.5747 16.6906
187 3 2.92057 15.3676 17.6558
188 3 4.47687 15.5498 16.8341
189 7 1.56456 17.2217 16.1788
190 6 1.12123 18.3941 15.5511
191 8 2.93353 16.9126 16.1746
192 7 3.83641 17.7313 15.4885
193 6 3.389 18.8682 14.7992
194 1 0.851099 16.5208 16.6128
195 1 0.054376 18.5979 15.5218
196 1 4.88148 17.4463 15.4312
197 1 1.67078 20.0937 14.3335
198 1 4.0899 19.4521 14.2067
199 13 0.0658276 12.4166 19.1698
200 5 3.00447 12.4527 19.2345
201 5 0.074453 9.23654 19.0164
202 5 0.0362993 12.3333 -2.34933
203 5 -0.0709381 15.4423 19.7128
204 11 3.49413 9.48768 -1.61969
205 9 2.68793 8.92175 -2.77725
206 2 1.63617 9.20094 -2.65856
207 2 2.77423 7.83144 -2.76606
208 2 3.06353 9.30124 21.0649
209 4 3.17669 9.11379 -0.703817
210 4 3.43288 10.5189 -1.57182
211 4 4.4991 9.25324 -1.71908
212 12 2.80923 14.7825 -2.81555
213 6 2.36422 19.7929 -2.55484
214 4 3.17132 15.0858 21.0612
215 4 1.77946 14.7853 -2.8925
216 4 3.0834 13.7892 -2.7122
217 10 3.29486 15.6658 -1.67277
218 3 2.86694 15.3115 -0.730375
219 3 4.37511 15.5212 -1.63664
220 7 1.63092 17.559 -1.91819
221 6 1.33045 18.8909 -2.25689
222 8 2.96429 17.126 -1.88372
223 7 3.99431 18.0167 -2.21799
224 6 3.69938 19.3502 -2.54099
225 1 0.823646 16.8496 -1.73274
226 1 0.289679 19.2013 -2.30745
227 1 5.02105 17.6503 -2.2482
228 1 2.1348 20.818 -2.82891
229 1 4.50059 20.031 -2.81021
230 13 0.0938041 12.2201 0.762764
231 5 3.06977 12.3904 0.899806
232 5 0.274821 9.24471 0.781583
233 5 -0.125517 12.1295 3.83862
234 5 -0.12083 15.2022 1.12357
235 11 3.79636 9.80589 3.5249
236 9 2.8135 8.89346 4.2359
237 2 2.95244 8.94981 5.31885
238 2 2.97289 7.86271 3.9035
239 2 1.79327 9.2066 3.99319
240 4 4.78361 9.56484 3.73499
241 4 3.66635 10.8009 3.78171
242 4 3.67926 9.75351 2.49876
243 12 2.33264 14.6964 3.93611
244 6 2.82888 19.4034 2.6055
245 4 2.32351 14.7469 2.90175
246 4 1.36255 14.9081 4.2335
247 4 2.49733 13.7038 4.1748
248 10 3.36471 15.6285 4.56811
249 3 3.26969 15.5913 5.66041
250 3 4.35862 15.2427 4.31805
251 7 1.94542 17.6522 4.04321
252 6 1.76298 18.843 3.33599
253 8 3.20952 17.0319 4.04706
254 7 4.27463 17.6105 3.35339
255 6 4.08735 18.7765 2.59849
256 1 1.10167 17.166 4.52123
257 1 0.774485 19.2873 3.28744
258 1 5.22856 17.0913 3.31421
259 1 2.67507 20.2992 2.01189
260 1 4.90441 19.1552 1.99035
261 13 5.84324 0.0790653 6.84438
262 5 9.01558 -0.0357868 6.67857
263 5 5.82628 -2.99652 7.16638
264 5 6.33387 0.163227 10.0029
265 12 9.20523 -2.40832 9.38589
266 6 10.1975 -7.45042 9.58385
267 4 8.78358 -2.48619 8.44356
268 4 10.2279 -2.49164 9.25905
269 4 9.01252 -1.43849 9.69886
270 10 8.65193 -3.46002 10.3402
271 3 8.92623 -3.15452 11.3576
272 3 7.55976 -3.42425 10.261
273 7 9.23917 -5.36347 8.75877
274 6 9.76158 -6.65112 8.51683
275 8 9.16325 -4.86077 10.0622
276 7 9.61794 -5.65572 11.1242
277 6 10.1303 -6.94413 10.8892
278 1 8.91511 -4.74888 7.91711
279 1 9.83185 -7.00489 7.49154
280 1 9.59014 -5.25295 12.1337
281 1 10.602 -8.44057 9.39803
282 1 10.5049 -7.53481 11.72
283 13 6.06638 0.15233 13.1693
284 5 9.08053 0.237142 13.3373
285 5 6.03879 -3.0032 13.1788
286 5 5.70441 0.0288511 16.2706
287 12 9.44672 -2.27353 15.812
288 6 8.99772 -7.40754 16.3453
289 4 9.37748 -2.4601 14.7964
290 4 10.4327 -2.45052 16.0825
291 4 9.28447 -1.26139 15.9503
292 10 8.47138 -3.12192 16.619
293 3 8.59163 -2.8538 17.6696
294 3 7.44876 -2.85165 16.3461
295 7 8.59369 -5.40219 17.642
296 6 8.75855 -6.7919 17.584
297 8 8.6586 -4.61873 16.4813
298 7 8.84511 -5.23611 15.2373
299 6 9.00694 -6.63234 15.172
300 1 8.45804 -4.91402 18.6056
301 1 8.73563 -7.36972 18.5036
302 1 8.87578 -4.6334 14.3287
303 1 9.1606 -8.47898 16.2892
304 1 9.16501 -7.10042 14.205
305 13 5.94522 0.0594489 19.2846
306 5 8.9111 0.0458899 19.2887
307 5 5.85398 -2.99998 19.7057
308 5 6.17796 0.149067 -2.31983
309 12 9.10751 -2.56042 -3.00251
310 6 8.96501 -7.59512 -2.44914
311 4 8.69137 -2.79779 20.8776
312 4 10.1271 -2.6996 -3.09988
313 4 8.96392 -1.5403 -2.89745
314 10 8.48909 -3.34691 -1.85901
315 3 8.89835 -3.00255 -0.90562
316 3 7.42474 -3.1012 -1.86206
317 7 9.94407 -5.41966 -1.95083
318 6 10.0912 -6.79945 -2.16822
319 8 8.67166 -4.83955 -2.00483
320 7 7.54885 -5.6332 -2.28097
321 6 7.69225 -7.00697 -2.52405
322 1 10.8163 -4.79708 -1.76667
323 1 11.081 -7.24486 -2.11274
324 1 6.57011 -5.15366 -2.33659
325 1 9.08062 -8.66182 -2.61301
326 1 6.81634 -7.60287 -2.76444
327 13 5.91679 -0.00188098 0.748896
328 5 8.9945 -0.0701561 0.848779
329 5 5.57656 -3.00324 0.895898
330 5 5.62715 0.0818227 3.81536
331 12 9.45431 -2.37896 3.6302
332 6 9.07478 -7.32284 2.52444
333 4 9.48325 -2.47658 2.60006
334 4 10.4304 -2.48817 3.95671
335 4 9.18133 -1.3988 3.82841
336 10 8.50346 -3.39239 4.26523
337 3 8.66258 -3.34549 5.34772
338 3 7.48053 -3.04352 4.06669
339 7 9.98124 -5.34494 3.61573
340 6 10.1782 -6.56521 2.9533
341 8 8.69244 -4.8176 3.75801
342 7 7.59967 -5.55371 3.26976
343 6 7.77481 -6.81361 2.67784
344 1 10.8385 -4.74459 3.90892
345 1 11.1907 -6.89493 2.74707
346 1 6.60986 -5.11241 3.32026
347 1 9.23203 -8.26383 2.00769
348 1 6.92199 -7.33873 2.25916
349 13 6.00609 6.1099 6.84031
350 5 9.10845 5.88551 6.76972
351 5 6.07161 3.09287 7.10297
352 5 6.04568 6.40779 10.0394
353 11 9.3606 2.55261 9.09104
354 9 8.89704 3.43344 10.2351
355 2 9.18813 4.46278 10.0091
356 2 9.34118 3.09892 11.1777
357 2 7.80477 3.38463 10.3054
358 4 10.39 2.49485 9.02743
359 4 9.01259 2.89047 8.17134
360 4 9.00691 1.58664 9.19818
361 13 6.04481 6.26204 13.0207
362 5 9.24078 6.25981 12.8318
363 5 6.06604 3.22692 13.2468
364 5 6.37908 6.28514 16.2105
365 11 9.32056 3.67904 15.3204
366 9 8.78431 2.83408 16.4652
367 2 9.14817 1.80767 16.3733
368 2 7.69407 2.84303 16.4212
369 2 9.10542 3.25485 17.4237
370 4 8.96648 3.35632 14.4002
371 4 10.3522 3.6579 15.2687
372 4 9.03786 4.67158 15.4184
373 13 6.0532 6.28124 19.2788
374 5 9.22981 6.30484 19.2222
375 5 5.90669 3.2378 19.2956
376 5 5.92174 6.30331 -2.40913
377 11 9.38561 2.42318 -1.90898
378 9 8.75405 3.47368 -2.80067
379 2 9.16397 4.46363 -2.58468
380 2 7.68198 3.47008 -2.60728
381 2 8.93505 3.22735 20.9474
382 4 9.18668 2.59145 -0.905859
383 4 10.4144 2.41299 -2.01416
384 4 9.04242 1.46991 -2.12975
385 13 6.18949 6.28117 0.546459
386 5 9.1684 6.14644 0.384397
387 5 6.22004 3.17361 0.667755
388 5 5.97449 6.02039 3.64837
389 11 9.39749 3.71332 2.98242
390 9 8.73937 2.76896 3.97719
391 2 9.11346 2.97317 4.98505
392 2 8.97361 1.73386 3.71794
393 2 7.65516 2.92139 3.95562
394 4 10.427 3.61683 2.96137
395 4 9.20104 4.70542 3.21403
396 4 9.05389 3.55847 2.01756
397 13 6.31783 12.2838 6.73005
398 5 9.32621 12.1053 6.53714
399 5 6.09011 9.2129 6.78831
400 5 6.41962 12.0228 9.83132
401 5 6.66535 15.3672 6.93199
402 11 8.79205 9.34228 10.662
403 9 9.58776 8.73678 9.51583
404 2 9.48742 7.65124 9.58367
405 2 10.6441 9.01237 9.61281
406 2 9.20463 9.07779 8.54686
407 4 9.12511 9.03354 11.5938
408 4 7.78642 9.09418 10.6104
409 4 8.84989 10.3733 10.662
410 12 9.18201 14.5346 9.38369
411 6 8.79047 19.6009 10.1243
412 4 9.46351 14.7399 8.40611
413 4 8.1549 14.6429 9.42716
414 4 9.37676 13.5259 9.52632
415 10 9.90054 15.4205 10.3993
416 3 9.59752 15.078 11.3941
417 3 10.9771 15.2466 10.2956
418 7 9.30196 17.6295 11.4514
419 6 8.92063 18.9764 11.3752
420 8 9.58144 16.9026 10.286
421 7 9.49469 17.5367 9.03632
422 6 9.08465 18.8808 8.95065
423 1 9.34982 17.121 12.4158
424 1 8.68798 19.5146 12.2901
425 1 9.68868 16.9762 8.12107
426 1 8.46038 20.6328 10.0607
427 1 8.97321 19.3419 7.97259
428 13 6.25701 12.3848 13.0956
429 5 9.23035 12.1926 13.0443
430 5 6.20117 9.16765 13.2867
431 5 6.18803 12.3895 16.2274
432 5 6.43956 15.395 13.366
433 11 8.58801 9.58191 16.7423
434 9 9.5501 8.81835 15.8497
435 2 9.36102 7.74988 15.9517
436 2 10.5812 9.02783 16.1487
437 2 9.39054 9.12482 14.8122
438 4 8.71643 9.30794 17.7326
439 4 7.59352 9.39767 16.5045
440 4 8.72686 10.6065 16.7009
441 12 9.48852 14.6755 15.957
442 6 9.04726 19.7778 15.7486
443 4 10.5153 14.8095 15.9249
444 4 9.13631 14.7906 14.9865
445 4 9.33641 13.6801 16.2034
446 10 8.80576 15.6259 16.9407
447 3 7.7481 15.3517 16.9262
448 3 9.1801 15.4307 17.9528
449 7 7.81154 17.9335 16.735
450 6 7.87301 19.2746 16.3301
451 8 8.9302 17.0974 16.5822
452 7 10.1285 17.6213 16.0778
453 6 10.1847 18.9556 15.6436
454 1 6.89583 17.5206 17.1533
455 1 6.99267 19.9019 16.4414
456 1 11.0129 16.9905 16.0074
457 1 9.09269 20.8066 15.4073
458 1 11.1111 19.3342 15.2216
459 13 6.02714 12.4492 19.4368
460 5 9.17408 12.2579 19.415
461 5 6.26911 9.35591 19.4003
462 5 5.91601 12.3007 -2.29793
463 5 6.04149 15.4721 19.8282
464 11 9.87053 8.71732 -2.97443
465 9 8.88209 9.48703 -2.10658
466 2 9.08109 9.29681 -1.04878
467 2 7.85792 9.18547 -2.33747
468 2 8.99805 10.5553 -2.31296
469 4 9.76821 7.69256 -2.8635
470 4 10.8611 8.94358 -2.75898
471 4 9.73155 8.91647 20.8176
472 12 8.70176 14.6167 -2.43915
473 6 9.25772 19.4715 20.9554
474 4 8.6075 14.5721 21.332
475 4 7.76881 14.9033 -2.09418
476 4 8.86453 13.6484 -2.11097
477 10 9.81037 15.5769 -2.02784
478 3 9.82083 15.6154 -0.933246
479 3 10.7606 15.1451 -2.36544
480 7 8.35347 17.5419 -2.70218
481 6 8.15593 18.77 21.4562
482 8 9.6305 16.9714 -2.60461
483 7 10.7314 17.698 -3.06886
484 6 10.5504 18.949 21.1215
485 1 7.49117 16.9991 -2.33002
486 1 7.1425 19.1333 21.3183
487 1 11.7267 17.2678 -2.98147
488 1 9.11529 20.414 20.4369
489 1 11.4089 19.4809 20.7244
490 13 6.20491 12.4548 0.693197
491 5 9.29804 12.3218 0.621442
492 5 6.14935 9.33645 0.826728
493 5 6.28284 12.4429 3.74402
494 5 6.70122 15.5766 0.671984
495 11 9.79971 9.72554 3.35242
496 9 8.83164 8.81117 4.08119
497 2 7.80885 9.14695 3.89803
498 2 9.06052 8.85222 5.15046
499 2 8.94827 7.78193 3.72747
500 4 9.68513 10.715 3.63862
501 4 9.68341 9.69832 2.3225
502 4 10.789 9.47355 3.54563
503 12 9.15536 14.7357 3.42299
504 6 9.20675 19.6438 2.51665
505 4 9.33708 14.7771 2.40427
506 4 8.14154 14.912 3.52976
507 4 9.32057 13.7566 3.72032
508 10 9.98683 15.7409 4.18866
509 3 9.73067 15.6348 5.24718
510 3 11.0381 15.469 4.03695
511 7 8.41739 17.6554 3.66721
512 6 8.15732 18.8938 3.07111
513 8 9.72604 17.1458 3.70576
514 7 10.7722 17.8972 3.15469
515 6 10.5162 19.1412 2.56464
516 1 7.5954 17.0471 4.04327
517 1 7.13413 19.243 2.98999
518 1 11.7745 17.4703 3.11836
519 1 9.00112 20.5803 2.00806
520 1 11.3302 19.687 2.09849
521 13 12.2157 -0.212782 6.75803
522 5 15.2164 -0.199244 6.97714
523 5 11.9397 -3.19 6.73439
524 5 11.9375 -0.0923931 9.88081
525 12 15.5945 -2.44773 9.77317
526 6 14.9777 -7.36671 8.63662
527 4 15.6949 -2.60785 8.75541
528 4 16.549 -2.52621 10.1699
529 4 15.3081 -1.45991 9.90798
530 10 14.6128 -3.43909 10.4026
531 3 14.7579 -3.41213 11.4838
532 3 13.603 -3.06492 10.1925
533 7 15.9973 -5.46113 9.73917
534 6 16.1267 -6.69955 9.09919
535 8 14.7369 -4.85569 9.87322
536 7 13.5941 -5.53631 9.43156
537 6 13.7053 -6.79326 8.81973
538 1 16.8826 -4.92287 10.069
539 1 17.121 -7.09706 8.91102
540 1 12.621 -5.0543 9.51934
541 1 15.0774 -8.30912 8.10834
542 1 12.8212 -7.277 8.41616
543 13 12.1359 -0.033826 12.9369
544 5 15.1572 0.0331432 12.8399
545 5 11.9619 -3.08993 13.251
546 5 12.2637 0.0640039 16.1877
547 12 15.2289 -2.44376 15.425
548 6 16.5458 -7.12743 16.5237
549 4 14.9961 -2.73448 14.4576
550 4 16.2596 -2.46819 15.5016
551 4 14.9437 -1.45355 15.5127
552 10 14.5718 -3.31016 16.4865
553 3 14.7092 -2.80576 17.4503
554 3 13.4934 -3.35782 16.2929
555 7 15.7955 -5.14639 17.6917
556 6 16.5099 -6.35229 17.6926
557 8 15.1685 -4.69111 16.5261
558 7 15.1779 -5.47545 15.3664
559 6 15.8574 -6.7037 15.3666
560 1 15.7524 -4.53151 18.587
561 1 17.0588 -6.64379 18.5849
562 1 14.6884 -5.11072 14.4619
563 1 17.1104 -8.05446 16.5127
564 1 15.8908 -7.2943 14.4559
565 13 12.0151 -0.100569 19.1712
566 5 15.2376 -0.117176 19.5914
567 5 11.6935 -3.10555 19.1374
568 5 11.9657 -0.139582 -2.44937
569 12 15.9353 -2.43893 -2.36314
570 6 15.0875 -7.24114 21.0682
571 4 15.9886 -2.46855 21.4062
572 4 16.8869 -2.66318 -2.01752
573 4 15.7595 -1.44996 -2.12702
574 10 14.8672 -3.38373 -1.82627
575 3 14.9646 -3.41225 -0.736589
576 3 13.8899 -2.94172 -2.05193
577 7 16.1763 -5.44896 -2.49899
578 6 16.2495 -6.67886 21.6271
579 8 14.9472 -4.77672 -2.40555
580 7 13.7863 -5.36731 -2.92067
581 6 13.8522 -6.59146 21.2014
582 1 17.0795 -4.96792 -2.12001
583 1 17.2164 -7.15339 21.4848
584 1 12.8468 -4.82014 -2.87692
585 1 15.1513 -8.16389 20.5012
586 1 12.9601 -6.99091 20.7248
587 13 12.0984 -0.140196 0.624332
588 5 15.142 -0.0372808 0.392036
589 5 12.0002 -3.22291 0.947227
590 5 12.3311 -0.0187428 3.73108
591 12 15.087 -2.54047 3.07187
592 6 15.2981 -7.59762 3.49812
593 4 14.0566 -2.58597 3.00984
594 4 15.4537 -2.84254 2.15337
595 4 15.3346 -1.53901 3.16215
596 10 15.6514 -3.37113 4.20652
597 3 16.7144 -3.12483 4.3035
598 3 15.1588 -3.09464 5.14643
599 7 16.6559 -5.59015 3.67698
600 6 16.5541 -6.96583 3.43532
601 8 15.5115 -4.84104 3.94696
602 7 14.2561 -5.45586 3.97755
603 6 14.1514 -6.84124 3.7888
604 1 17.6262 -5.09246 3.64423
605 1 17.453 -7.53219 3.20394
606 1 13.3679 -4.8539 4.1607
607 1 15.219 -8.66584 3.32418
608 1 13.1783 -7.31624 3.84837
609 13 12.2437 5.96553 6.66189
610 5 15.3424 5.97422 6.72152
611 5 12.2419 2.97411 6.7242
612 5 12.4687 6.03629 9.77449
613 11 15.7116 3.61829 10.5522
614 9 14.9744 2.68422 9.60926
615 2 15.154 2.98358 8.5736
616 2 13.901 2.74566 9.81359
617 2 15.319 1.66135 9.77183
618 4 15.4727 4.61369 10.3928
619 4 16.7393 3.5364 10.457
620 4 15.4933 3.4121 11.5451
621 13 12.1783 6.17949 12.8175
622 5 15.3232 6.14032 13.0769
623 5 12.304 3.12637 12.9804
624 5 12.2012 5.92311 16.0439
625 11 14.7617 3.36484 15.5729
626 9 15.5767 2.58483 16.5886
627 2 15.2576 2.83718 17.6062
628 2 16.6342 2.83225 16.4573
629 2 15.4213 1.51658 16.4192
630 4 14.8703 4.38726 15.6967
631 4 13.7472 3.16278 15.6487
632 4 15.039 3.16404 14.5929
633 13 12.2785 5.9763 19.1194
634 5 15.3322 6.00372 19.1727
635 5 12.0146 2.99137 19.258
636 5 12.2978 5.95835 -2.5988
637 11 14.4973 2.6837 -2.87265
638 9 15.5653 3.38997 -2.04543
639 2 15.5372 4.46246 -2.26378
640 2 16.5639 2.9935 -2.27121
641 2 15.3543 3.23047 -0.983167
642 4 14.6569 2.79337 20.9093
643 4 13.5423 3.04667 -2.68585
644 4 14.4702 1.66369 -2.6903
645 13 12.3636 6.13699 0.456157
646 5 15.3207 6.12806 0.804005
647 5 12.0912 3.0302 0.438039
648 5 12.0572 6.12629 3.66516
649 11 15.4014 2.57871 4.60656
650 9 14.7749 3.35496 3.46588
651 2 15.0233 4.40955 3.60529
652 2 13.6933 3.20962 3.4927
653 2 15.1604 3.00245 2.50157
654 4 15.1262 2.9477 5.53604
655 4 16.436 2.60429 4.58453
656 4 15.1255 1.58163 4.5837
657 13 12.3714 12.1579 6.68307
658 5 15.3287 11.916 6.89217
659 5 12.3587 9.05341 6.58592
660 5 12.2649 12.1362 9.90499
661 5 12.4774 15.18 7.04218
662 11 15.0602 8.62833 9.18163
663 9 15.7224 9.41003 10.306
664 2 15.5041 10.4696 10.1637
665 2 16.8032 9.23599 10.2815
666 2 15.3368 9.09487 11.2786
667 4 15.4191 8.90902 8.24848
668 4 14.0355 8.76773 9.14856
669 4 15.2183 7.60956 9.26731
670 12 15.2022 14.4621 9.4958
671 6 14.4157 19.4847 9.475
672 4 15.4786 14.6341 8.51198
673 4 14.1699 14.4355 9.49567
674 4 15.5356 13.5081 9.72248
675 10 15.7704 15.5134 10.4441
676 3 15.4994 15.2384 11.4721
677 3 16.8575 15.4508 10.361
678 7 13.9409 17.2115 10.1767
679 6 13.4875 18.4959 9.85527
680 8 15.3088 16.9205 10.138
681 7 16.2355 17.9152 9.80879
682 6 15.7938 19.2112 9.47805
683 1 13.2175 16.4309 10.4101
684 1 12.4169 18.693 9.86003
685 1 17.2947 17.6645 9.77718
686 1 14.0585 20.4694 9.19494
687 1 16.5138 19.9694 9.18164
688 13 12.3158 12.2389 12.9651
689 5 15.4036 12.1522 13.204
690 5 12.2901 9.17986 12.9588
691 5 12.3014 12.0474 16.2555
692 5 12.3537 15.2228 13.4573
693 11 14.6894 8.84691 15.5715
694 9 15.7348 9.39511 16.5343
695 2 15.5122 9.07495 17.5586
696 2 15.6988 10.4867 16.495
697 2 16.7413 9.0519 16.2633
698 4 13.7354 9.19479 15.7914
699 4 14.6366 7.81472 15.5834
700 4 14.8864 9.1286 14.592
701 12 15.0563 14.5589 16.0494
702 6 15.7756 19.5571 15.482
703 4 15.0796 14.7247 15.0264
704 4 14.0676 14.6569 16.3449
705 4 15.2975 13.5584 16.1804
706 10 15.9996 15.4825 16.8163
707 3 15.841 15.3407 17.8927
708 3 17.017 15.1566 16.5867
709 7 14.6513 17.5437 16.2404
710 6 14.5827 18.8489 15.736
711 8 15.9006 16.9463 16.4558
712 7 17.0899 17.6699 16.2506
713 6 17.0303 18.9799 15.7469
714 1 13.7364 16.973 16.3875
715 1 13.6161 19.2845 15.5015
716 1 18.0507 17.1738 16.3971
717 1 15.7149 20.5509 15.052
718 1 17.9491 19.5085 15.5121
719 13 12.4198 12.2931 19.2541
720 5 15.5714 12.2862 19.4057
721 5 12.3348 9.07418 19.1774
722 5 12.4077 12.0436 -2.50146
723 5 12.4266 15.2671 19.1252
724 11 15.9747 9.7833 -2.79519
725 9 15.1217 8.70787 -2.15646
726 2 15.1675 8.84305 -1.07399
727 2 15.4898 7.71165 -2.42992
728 2 14.0883 8.82569 -2.49516
729 4 16.9786 9.6657 -2.56979
730 4 15.7028 10.7365 -2.49356
731 4 15.9046 9.75566 20.9726
732 12 15.0628 14.6675 -2.70552
733 6 16.4369 19.4049 20.7701
734 4 14.9842 14.763 21.0656
735 4 14.127 14.8629 -2.30775
736 4 15.2402 13.6654 -2.50835
737 10 16.1415 15.5654 -2.09533
738 3 15.9816 15.5794 -1.01288
739 3 17.108 15.0872 -2.26861
740 7 15.0727 17.5505 21.5717
741 6 15.1828 18.79 20.9248
742 8 16.2048 16.9652 -2.65706
743 7 17.4462 17.6203 -2.74181
744 6 17.5778 18.8069 21.3231
745 1 14.1062 17.0501 21.6051
746 1 14.3046 19.2185 20.452
747 1 18.3292 17.1147 -2.34737
748 1 16.5334 20.3077 20.1755
749 1 18.5615 19.2319 21.1511
750 13 12.4645 12.231 0.422124
751 5 15.492 12.1376 0.379094
752 5 12.1779 9.11343 0.534513
753 5 12.3607 12.3147 3.57779
754 5 12.8385 15.3228 0.421661
755 11 15.9833 8.59785 4.22228
756 9 15.0837 9.45225 3.34392
757 2 15.3174 9.26462 2.29109
758 2 15.2492 10.5085 3.57461
759 2 14.0371 9.18406 3.52697
760 4 16.987 8.82152 4.08815
761 4 15.8751 7.58765 4.01922
762 4 15.788 8.71276 5.23291
763 12 15.3679 14.5438 3.10738
764 6 14.6638 19.4747 4.15228
765 4 15.7372 14.7704 2.166
766 4 14.338 14.6464 3.05791
767 4 15.5538 13.5335 3.24555
768 10 15.9916 15.3804 4.21784
769 3 15.6759 14.9417 5.17406
770 3 17.0827 15.2827 4.15248
771 7 15.3807 17.5128 5.37929
772 6 14.8946 18.8203 5.37033
773 8 15.5883 16.8346 4.16912
774 7 15.3404 17.4771 2.94742
775 6 14.8633 18.7975 2.9381
776 1 15.53 16.9808 6.31843
777 1 14.6835 19.3162 6.31296
778 1 15.5122 16.9667 2.00082
779 1 14.2856 20.491 4.14396
780 1 14.6471 19.2783 1.98772
781 13 18.2763 -0.226322 7.0015
782 5 21.2673 -0.0648457 6.69738
783 5 18.3519 -3.37584 7.3465
784 5 18.4723 -0.0309801 10.0298
785 12 21.674 -2.56478 9.35366
786 6 -2.8609 -7.47655 10.9714
787 4 21.3973 -2.91253 8.41545
788 4 -2.10062 -2.66504 9.41071
789 4 21.4813 -1.54853 9.35273
790 10 20.9694 -3.27774 10.5018
791 3 21.189 -2.74132 11.4303
792 3 19.8954 -3.18069 10.3261
793 7 -2.13651 -5.16461 10.7753
794 6 -1.82807 -6.52195 10.9417
795 8 21.3264 -4.74269 10.6634
796 7 20.3031 -5.6999 10.6865
797 6 20.6013 -7.06407 10.8156
798 1 -1.34347 -4.42317 10.7382
799 1 -0.788048 -6.82044 11.0504
800 1 19.2723 -5.36811 10.5698
801 1 -2.62867 -8.53113 11.0835
802 1 19.7978 -7.79423 10.7917
803 13 18.2564 -0.261114 13.176
804 5 21.3027 -0.0356385 13.4671
805 5 17.7888 -3.19812 12.9959
806 5 18.2332 -0.309769 16.305
807 12 -2.50365 -2.51321 16.259
808 6 20.9954 -6.95993 14.3894
809 4 -2.66362 -2.4069 15.2423
810 4 -1.51574 -2.80888 16.3557
811 4 -2.55165 -1.56385 16.6669
812 10 21.3043 -3.48225 16.9107
813 3 21.5807 -3.65043 17.9557
814 3 20.3313 -2.97946 16.9277
815 7 -2.4495 -5.4842 15.7667
816 6 -2.5484 -6.58121 14.8952
817 8 21.1877 -4.78671 16.1534
818 7 19.9336 -5.17816 15.6707
819 6 19.8415 -6.2372 14.7484
820 1 -1.47196 -5.12618 16.0912
821 1 -1.64275 -7.07726 14.5554
822 1 19.0461 -4.59245 15.915
823 1 20.9267 -7.76322 13.6654
824 1 18.8769 -6.45435 14.2921
825 13 18.4125 -0.200243 19.4264
826 5 21.5319 0.158703 19.0733
827 5 18.485 -3.2241 19.9088
828 5 18.7756 -0.0168917 -2.31031
829 12 -3.01468 -2.41988 -3.00969
830 6 -2.3091 -7.31664 -1.69151
831 4 21.4467 -2.77098 20.8775
832 4 -1.98258 -2.44789 -3.04233
833 4 21.5351 -1.41607 -2.97608
834 10 21.2235 -3.18506 -1.81618
835 3 21.4843 -2.65699 -0.891764
836 3 20.1341 -3.15575 -1.9002
837 7 -1.76414 -4.95606 -1.96579
838 6 -1.36642 -6.29759 -1.93368
839 8 21.6899 -4.61914 -1.74911
840 7 20.7506 -5.62793 -1.49633
841 6 21.1395 -6.97946 -1.47067
842 1 -1.02676 -4.1743 -2.15438
843 1 -0.318039 -6.5297 -2.10529
844 1 19.7135 -5.34432 -1.31322
845 1 -1.99483 -8.35551 -1.66665
846 1 20.397 -7.74914 -1.27796
847 13 18.3465 0.00979679 0.753938
848 5 21.4031 0.173929 1.02101
849 5 18.1413 -3.02175 0.803182
850 5 18.0309 0.0306392 3.98814
851 12 -2.99509 -2.29882 3.54911
852 6 21.6903 -7.35319 3.06868
853 4 -2.97252 -2.33407 2.51756
854 4 -2.02444 -2.516 3.84219
855 4 21.6327 -1.3129 3.81457
856 10 20.7995 -3.27228 4.14488
857 3 20.8994 -3.17867 5.22946
858 3 19.7908 -2.94614 3.87365
859 7 20.9611 -5.71293 4.7268
860 6 21.2963 -7.03595 4.38366
861 8 21.0201 -4.7145 3.7476
862 7 21.37 -5.0461 2.42411
863 6 -3.06778 -6.35544 2.08179
864 1 20.7117 -5.44441 5.75474
865 1 21.2881 -7.80329 5.1523
866 1 21.3985 -4.26766 1.66152
867 1 -2.81942 -8.36747 2.81607
868 1 -2.72982 -6.57021 1.07361
869 13 18.5858 5.99213 6.9924
870 5 21.5439 5.87744 6.86669
871 5 18.2303 2.92512 7.09391
872 5 18.4155 6.11771 10.1206
873 11 20.9541 2.5718 10.8231
874 9 -3.07217 3.31665 9.75351
875 2 21.4063 2.98845 8.75737
876 2 -2.00654 3.11392 9.89107
877 2 21.5568 4.39059 9.87283
878 4 21.1501 1.55536 10.803
879 4 19.9314 2.67662 10.6968
880 4 21.1821 2.90366 11.7788
881 13 18.5776 6.18377 13.3245
882 5 21.6226 5.75002 13.1131
883 5 18.1422 2.95428 13.1415
884 5 18.4873 5.86914 16.3115
885 11 20.6685 2.51907 15.97
886 9 -3.04355 3.36755 16.6142
887 2 21.6432 3.29393 17.6974
888 2 21.6367 4.41431 16.3259
889 2 -2.05169 3.01121 16.3112
890 4 19.7195 2.80522 16.2784
891 4 20.7628 1.51831 16.2286
892 4 20.6866 2.57839 14.9391
893 13 18.4695 6.00102 19.3838
894 5 21.5118 6.1318 19.5706
895 5 18.5165 2.83713 19.2501
896 5 18.6017 5.95537 -2.30654
897 11 21.2286 2.71706 -3.07352
898 9 -2.82701 3.4751 -1.99078
899 2 21.6965 3.11081 -0.993695
900 2 -3.07663 4.53281 -2.07948
901 2 -1.75462 3.33189 -2.14781
902 4 20.2007 2.79934 -2.9696
903 4 21.4469 1.70493 -3.05302
904 4 21.4673 3.04822 20.7718
905 13 18.5063 6.02589 0.697625
906 5 21.6024 6.24356 0.83687
907 5 18.405 3.07014 0.802666
908 5 18.4108 6.02514 3.95144
909 11 20.8265 2.6383 4.26276
910 9 -2.85026 3.40523 3.5731
911 2 -1.87108 3.04453 3.90572
912 2 -2.94086 4.47038 3.79389
913 2 -2.94599 3.26302 2.49273
914 4 20.8416 2.75572 5.29342
915 4 20.8839 1.62044 4.07719
916 4 19.8882 2.94302 3.93818
917 13 18.4396 12.1999 6.94304
918 5 21.5706 12.3805 6.77697
919 5 18.3166 9.00164 6.97502
920 5 18.4061 12.2148 10.0237
921 5 18.3351 15.2407 7.32442
922 11 -2.74402 8.65218 10.6238
923 9 21.2468 9.38049 9.5646
924 2 21.4708 8.97998 8.57048
925 2 21.4892 10.4466 9.59361
926 2 20.1843 9.24569 9.79107
927 4 -1.72347 8.73995 10.4557
928 4 -2.94489 7.63522 10.6381
929 4 -2.92246 9.01312 11.5806
930 12 21.1094 14.5283 9.65921
931 6 21.533 19.6511 9.98081
932 4 21.1661 14.7018 8.64084
933 4 20.1215 14.7048 9.91596
934 4 21.2746 13.5159 9.79916
935 10 -2.71983 15.39 10.4456
936 3 -2.83987 15.1502 11.5064
937 3 -1.70426 15.1068 10.1434
938 7 20.5758 17.4188 10.1412
939 6 20.4088 18.8053 10.0085
940 8 -2.93656 16.8771 10.2553
941 7 -1.82305 17.7233 10.2372
942 6 -1.97559 19.1133 10.1137
943 1 19.6966 16.7772 10.1518
944 1 19.4059 19.2121 9.91543
945 1 -0.832053 17.2783 10.3206
946 1 21.3976 20.7209 9.86025
947 1 -1.09579 19.7505 10.0975
948 13 18.5235 12.2543 13.0287
949 5 -3.06193 12.1707 13.0513
950 5 18.6933 9.18972 13.2129
951 5 18.5776 12.2247 16.2846
952 5 18.7124 15.3321 13.0786
953 11 -2.49974 9.72424 15.9726
954 9 21.2959 8.82375 16.6854
955 2 21.5117 7.76955 16.4742
956 2 20.2735 9.06332 16.3712
957 2 21.3872 8.99908 17.761
958 4 -2.60334 9.70763 14.9429
959 4 -1.51756 9.45624 16.1813
960 4 -2.5915 10.7127 16.2672
961 12 21.2523 14.5072 15.8428
962 6 21.6073 19.5388 15.3391
963 4 21.1207 14.5515 14.8182
964 4 20.3331 14.7538 16.2565
965 4 21.4212 13.5166 16.0916
966 10 -2.44131 15.4345 16.3411
967 3 -2.43587 15.322 17.4276
968 3 -1.47378 15.1025 15.9588
969 7 -2.75779 17.8262 17.0047
970 6 -3.02053 19.1684 16.6843
971 8 -2.65526 16.8782 15.9785
972 7 -2.82608 17.2469 14.6376
973 6 21.689 18.5812 14.3143
974 1 -2.66064 17.4987 18.0418
975 1 21.6777 19.9051 17.4754