ITEM: TIMESTEP
110000
ITEM: NUMBER OF ATOMS
1040
ITEM: BOX BOUNDS pp pp pp
-3.1204881912093883e+00 2.1720488191209295e+01
-6.9095259441535461e+01 8.1495259441535467e+01
-3.1220324055652924e+00 2.1722032405564985e+01
ITEM: ATOMS id type x y z
1 13 -0.219403 -0.156315 9.10843
2 5 2.94124 -0.333963 9.02416
3 5 -0.168044 -3.12462 8.55061
4 5 -0.560298 -0.0555092 12.0672
5 12 3.48409 -2.54424 11.988
6 6 3.28968 -7.66083 12.0553
7 4 4.25921 -2.79072 12.592
8 4 3.18283 -1.58448 12.1001
9 4 3.86909 -2.55096 11.0355
10 10 2.2581 -3.47255 12.2259
11 3 1.73994 -3.21802 13.1913
12 3 1.45407 -3.16744 11.5064
13 7 2.55459 -5.7828 13.2994
14 6 2.91111 -7.12023 13.2672
15 8 2.51744 -4.99029 12.1102
16 7 2.84759 -5.53567 10.9124
17 6 3.24874 -6.88041 10.8294
18 1 2.49955 -5.2542 14.2987
19 1 3.15831 -7.67882 14.1395
20 1 2.92283 -4.95747 9.99232
21 1 3.48005 -8.72405 12.0314
22 1 3.51502 -7.31471 9.82584
23 13 -0.354029 -0.341532 15.2053
24 5 2.6908 -0.388838 14.904
25 5 -0.38202 -3.36869 15.6384
26 5 -0.0350137 -0.199957 18.4056
27 12 2.54673 -2.61704 17.6634
28 6 3.00429 -7.84037 18.0991
29 4 1.52663 -2.61593 17.6893
30 4 2.86199 -2.93066 16.7014
31 4 2.90192 -1.69146 17.8833
32 10 3.09502 -3.59154 18.7704
33 3 4.17738 -3.28175 18.8868
34 3 2.65322 -3.33001 19.797
35 7 4.20971 -5.78675 18.5788
36 6 4.20369 -7.17841 18.1668
37 8 3.0723 -5.12362 18.6205
38 7 1.82824 -5.73017 18.4841
39 6 1.77346 -7.10304 18.0935
40 1 5.12286 -5.20441 18.6984
41 1 5.12354 -7.75852 18.1046
42 1 0.940111 -5.08443 18.6257
43 1 2.91917 -8.93 18.0231
44 1 0.733227 -7.56833 17.9577
45 13 -0.134266 -0.073544 21.5249
46 5 2.97734 -0.127107 21.4878
47 5 -0.380662 -3.1475 21.5798
48 5 -0.521352 -0.112044 -0.371069
49 12 2.33708 -2.56794 -0.806594
50 6 2.43877 -7.65556 -0.320854
51 4 1.31391 -2.49247 -0.618292
52 4 2.43805 -2.95663 -1.80346
53 4 2.67465 -1.59599 -0.73893
54 10 3.13969 -3.45361 0.0848812
55 3 4.18602 -3.25137 -0.0522913
56 3 2.95241 -3.02097 1.03331
57 7 2.5936 -5.47306 -1.30614
58 6 2.38986 -6.83578 -1.45549
59 8 2.8627 -4.88272 -0.055952
60 7 2.88538 -5.68888 1.04715
61 6 2.64374 -7.09405 0.936296
62 1 2.73781 -4.93289 -2.24511
63 1 2.36312 -7.32341 -2.44077
64 1 3.08249 -5.19446 2.0407
65 1 2.5286 -8.72308 -0.552798
66 1 2.72865 -7.74588 1.7448
67 13 -0.236725 -0.0653238 2.60302
68 5 3.01069 0.205066 2.88574
69 5 -0.142336 -3.12292 2.9436
70 5 -0.184258 0.100935 5.78435
71 12 2.61873 -2.52287 5.41911
72 6 2.55319 -7.65702 5.49892
73 4 2.94177 -2.85341 4.54775
74 4 2.83496 -1.50882 5.48767
75 4 1.65622 -2.72356 5.47661
76 10 3.28962 -3.46615 6.4462
77 3 4.40521 -3.3627 6.33552
78 3 3.00909 -3.13132 7.39723
79 7 3.99177 -5.82478 6.29073
80 6 3.79049 -7.2063 5.91026
81 8 2.95344 -4.9009 6.25324
82 7 1.74012 -5.39533 5.86392
83 6 1.50405 -6.71682 5.51105
84 1 4.98798 -5.50045 6.49675
85 1 4.63424 -7.84003 6.00048
86 1 0.895859 -4.68267 5.77781
87 1 2.39552 -8.73131 5.29857
88 1 0.496983 -7.00394 5.20458
89 13 0.0855796 6.1418 9.0353
90 5 3.01914 6.16535 8.60039
91 5 -0.065506 3.0933 9.10544
92 5 -0.12311 6.36135 12.0199
93 11 1.96331 2.96284 12.4404
94 9 3.15917 3.04451 11.4952
95 2 3.04091 2.52109 10.5219
96 2 3.92695 2.4914 12.0477
97 2 3.33594 4.07828 11.3568
98 4 2.17532 3.41917 13.3301
99 4 1.77092 2.00546 12.8398
100 4 1.09501 3.40322 12.1118
101 13 -0.454379 6.36222 14.9846
102 5 2.68689 6.06533 15.0136
103 5 -0.460011 2.81303 14.9687
104 5 -0.636593 6.13787 17.9865
105 11 3.06264 2.5437 19.0997
106 9 2.34867 3.33845 18.027
107 2 2.7814 4.32154 17.8123
108 2 1.23301 3.49107 18.1987
109 2 2.3593 2.73611 17.0422
110 4 2.86688 2.94471 20.0348
111 4 4.10954 2.43522 19.0922
112 4 2.69066 1.56138 19.0999
113 13 -0.0716369 6.17167 21.3402
114 5 2.94254 5.96612 20.8619
115 5 -0.0633289 3.17022 21.3775
116 5 0.0670453 6.42816 -0.483251
117 11 3.3851 3.02669 0.547266
118 9 2.44279 2.81575 -0.617405
119 2 2.18105 1.7551 -0.618891
120 2 2.93543 3.1935 -1.53306
121 2 1.48386 3.34407 -0.44695
122 4 2.92125 2.70239 1.44889
123 4 3.70834 4.00644 0.639999
124 4 4.19986 2.46356 0.417155
125 13 -0.412182 6.13403 2.74005
126 5 3.11619 5.87389 2.92644
127 5 -0.242662 3.01438 2.41995
128 5 -0.375139 5.98442 5.66779
129 11 3.76273 3.53934 5.59289
130 9 2.65366 2.69813 6.25932
131 2 2.74404 1.66952 5.86932
132 2 1.6254 3.13567 6.04168
133 2 2.85103 2.57581 7.34196
134 4 3.74359 3.47366 4.56222
135 4 4.6842 3.23855 5.88586
136 4 3.71697 4.581 5.81771
137 13 -0.0316148 12.4568 8.81679
138 5 3.05023 12.542 8.76478
139 5 0.0712988 9.2982 8.83611
140 5 -0.0518935 12.3503 11.7664
141 5 -0.0701614 15.65 8.39057
142 11 2.14584 9.34681 12.4248
143 9 3.1261 8.84123 11.3992
144 2 3.21559 7.78566 11.3953
145 2 4.05864 9.36956 11.5932
146 2 2.84988 9.14596 10.4364
147 4 1.97083 10.37 12.4068
148 4 2.41837 9.09372 13.355
149 4 1.1861 8.9135 12.3404
150 12 3.60823 14.9254 11.6221
151 6 2.63628 19.9359 12.2181
152 4 3.44326 13.9921 11.2875
153 4 4.31974 14.9735 12.3693
154 4 4.07888 15.4361 10.8307
155 10 2.3828 15.6232 12.1072
156 3 1.51606 15.2667 11.53
157 3 2.26057 15.3913 13.1377
158 7 3.75259 17.7717 12.1468
159 6 3.80055 19.142 12.1307
160 8 2.50317 17.1284 12.1125
161 7 1.3675 17.9075 11.8996
162 6 1.41748 19.3022 12.1204
163 1 4.68642 17.1164 12.0409
164 1 4.75722 19.664 11.8869
165 1 0.324805 17.4009 11.8235
166 1 2.70427 21.0077 12.2079
167 1 0.461397 19.9237 12.1991
168 13 -0.320911 12.5047 14.8686
169 5 2.76488 12.1598 14.7027
170 5 -0.527247 9.41702 15.0534
171 5 -0.207608 12.3864 17.9564
172 5 -0.676386 15.4611 14.7942
173 11 3.48673 8.85866 18.6267
174 9 2.54625 9.42801 17.5636
175 2 1.4626 9.02201 17.6546
176 2 3.00816 9.27199 16.573
177 2 2.55402 10.5455 17.7477
178 4 4.28248 9.47577 18.7512
179 4 3.84931 7.91539 18.4289
180 4 3.04334 8.78787 19.5951
181 12 2.89427 14.559 18.5266
182 6 2.05027 19.6095 17.8282
183 4 3.05985 13.5034 18.3561
184 4 1.89617 14.7193 18.5144
185 4 3.16621 14.8533 19.4972
186 10 3.45382 15.4675 17.4768
187 3 4.5553 15.3802 17.605
188 3 3.16298 15.1231 16.461
189 7 2.67804 17.5083 18.8786
190 6 2.08348 18.7825 18.9375
191 8 2.92631 16.9473 17.6162
192 7 2.74448 17.6965 16.4476
193 6 2.32121 19.023 16.6114
194 1 2.76455 17.0064 19.8405
195 1 1.95028 19.2695 19.9253
196 1 2.89378 17.2842 15.4118
197 1 1.72523 20.6058 17.8707
198 1 2.32672 19.5911 15.6511
199 13 -0.17614 12.1442 21.1011
200 5 3.2288 11.9871 20.9725
201 5 0.212335 9.17028 21.0008
202 5 0.20666 12.0013 -0.47961
203 5 0.334856 15.1116 21.1923
204 11 2.4491 8.90115 0.374456
205 9 3.23723 9.23681 -0.894395
206 2 3.09548 10.2926 -1.08401
207 2 2.90025 8.70742 -1.81667
208 2 4.25816 8.97299 -0.709354
209 4 1.38704 8.99599 0.142807
210 4 2.73793 9.42644 1.249
211 4 2.51371 7.92128 0.636641
212 12 3.18797 14.4718 -1.12014
213 6 2.724 19.5281 -1.3697
214 4 4.16922 14.585 -1.07177
215 4 3.1571 14.8697 -2.06018
216 4 2.99902 13.4093 -1.15278
217 10 2.46895 15.4163 -0.119073
218 3 1.40234 15.1067 -0.0238648
219 3 2.95653 15.253 0.91111
220 7 1.46626 17.5341 -0.9749
221 6 1.48357 18.8613 -1.36995
222 8 2.58221 16.9037 -0.470773
223 7 3.84925 17.5237 -0.528903
224 6 3.93936 18.8264 -1.05973
225 1 0.533482 16.9891 -1.02527
226 1 0.576487 19.2938 -1.75269
227 1 4.69408 17.0007 -0.0714809
228 1 2.78031 20.5525 -1.67153
229 1 4.89173 19.3678 -0.993089
230 13 -0.279817 12.3137 2.39515
231 5 2.90723 12.098 2.5855
232 5 -0.275201 9.09441 2.85385
233 5 0.087046 12.19 5.79505
234 5 -0.21808 15.2569 2.99063
235 11 3.15996 9.95248 6.38962
236 9 2.83902 8.73197 5.57023
237 2 1.9219 8.33313 5.96767
238 2 3.6533 8.07243 5.79756
239 2 2.76144 8.95653 4.44711
240 4 4.10013 10.2627 6.19991
241 4 3.02487 9.80803 7.39115
242 4 2.51971 10.7062 6.1338
243 12 2.57395 14.7632 5.35086
244 6 2.35493 19.8703 5.33539
245 4 1.5912 14.9356 5.61224
246 4 2.89683 13.8047 5.66077
247 4 2.60221 14.6992 4.27991
248 10 3.49895 15.7992 5.93957
249 3 3.43942 15.6794 7.04171
250 3 4.5242 15.679 5.65643
251 7 2.99226 18.0672 6.78152
252 6 2.67688 19.3933 6.63485
253 8 3.00819 17.1827 5.68497
254 7 2.84332 17.6911 4.35585
255 6 2.52599 19.0454 4.20023
256 1 3.24882 17.6774 7.83829
257 1 2.52455 20.0054 7.50591
258 1 2.92677 17.0207 3.4815
259 1 1.98879 20.837 5.21821
260 1 2.26962 19.3946 3.23363
261 13 6.04252 -0.140843 9.01396
262 5 9.02196 0.194444 8.89575
263 5 6.46668 -3.45123 9.10177
264 5 5.91666 -0.261228 12.0373
265 12 9.211 -2.46317 11.4902
266 6 9.77149 -7.45648 11.5893
267 4 8.83397 -1.48548 11.7111
268 4 8.87865 -2.65901 10.5437
269 4 10.2644 -2.57828 11.4127
270 10 8.70586 -3.40681 12.562
271 3 9.18031 -3.22298 13.4557
272 3 7.60585 -3.28501 12.7509
273 7 8.00492 -5.82446 12.2542
274 6 8.4011 -7.09375 11.799
275 8 9.00117 -4.84681 12.2867
276 7 10.3283 -5.19369 12.0452
277 6 10.7491 -6.51929 11.7595
278 1 6.94858 -5.54817 12.3183
279 1 7.6591 -7.84194 11.6541
280 1 11.046 -4.39123 12.142
281 1 10.0955 -8.37678 11.2845
282 1 11.7766 -6.78869 11.6172
283 13 5.79174 -0.377237 15.2231
284 5 8.79114 -0.226183 15.1209
285 5 5.34834 -3.52142 15.1266
286 5 5.8497 -0.324532 18.2419
287 12 9.47006 -2.50745 18.0376
288 6 9.725 -7.37529 16.9322
289 4 9.23867 -1.52663 18.5052
290 4 9.43407 -2.46816 16.9992
291 4 10.4708 -2.59983 18.3099
292 10 8.56587 -3.54836 18.6164
293 3 8.69668 -3.63538 19.6951
294 3 7.50363 -3.21064 18.4259
295 7 9.1138 -5.93127 18.8751
296 6 9.57985 -7.16037 18.2972
297 8 8.7691 -4.88192 17.9837
298 7 8.86805 -5.07148 16.5935
299 6 9.37595 -6.3135 16.1216
300 1 9.27028 -5.86748 19.9323
301 1 9.70987 -8.04339 18.9271
302 1 8.74743 -4.15007 15.9385
303 1 9.87012 -8.3931 16.4492
304 1 9.37693 -6.47311 15.0839
305 13 6.12835 -0.228024 21.3998
306 5 9.06767 0.204735 21.3189
307 5 5.79355 -3.10105 21.6388
308 5 5.89705 -0.2205 -0.138076
309 12 8.83888 -2.06178 -0.81154
310 6 9.3359 -6.9791 -1.85039
311 4 7.93123 -2.23531 -1.21662
312 4 9.54282 -1.9564 -1.51277
313 4 8.88269 -1.17793 -0.229966
314 10 9.28297 -3.20571 0.132049
315 3 10.3123 -2.98341 0.418881
316 3 8.58842 -3.15975 0.975253
317 7 10.4612 -5.12105 -0.686597
318 6 10.5135 -6.30217 -1.41502
319 8 9.21918 -4.56899 -0.483854
320 7 8.02196 -5.20856 -0.903063
321 6 8.11552 -6.42932 -1.6226
322 1 11.3594 -4.64099 -0.324467
323 1 11.5017 -6.70465 -1.59676
324 1 7.13694 -4.678 -0.633154
325 1 9.38788 -7.86209 -2.47805
326 1 7.31036 -6.94263 -1.97058
327 13 6.02881 -0.482642 2.86759
328 5 9.05268 -0.298527 2.70229
329 5 5.85649 -3.43294 3.18723
330 5 5.88077 -0.257821 6.0461
331 12 9.05529 -2.46593 6.43766
332 6 9.33382 -7.65113 6.00903
333 4 9.00404 -1.4276 6.23387
334 4 9.4536 -2.70926 7.4037
335 4 8.10295 -2.83529 6.53413
336 10 9.72411 -3.35075 5.3243
337 3 9.38203 -3.1498 4.34012
338 3 10.7697 -3.08346 5.3474
339 7 9.52016 -5.77666 4.48504
340 6 9.45353 -7.14562 4.67389
341 8 9.52077 -4.86421 5.54355
342 7 9.36927 -5.36999 6.85643
343 6 9.22836 -6.71842 7.09139
344 1 9.60661 -5.32118 3.49284
345 1 9.46869 -7.7698 3.78972
346 1 9.4188 -4.61133 7.7073
347 1 9.30004 -8.74265 6.13246
348 1 9.09089 -6.98962 8.11719
349 13 6.06723 6.2908 8.95733
350 5 9.14988 6.04115 8.92209
351 5 6.06761 3.00625 8.58964
352 5 6.12376 6.0375 12.015
353 11 9.28672 3.6896 11.6528
354 9 8.47893 2.58648 12.2017
355 2 8.82959 1.62736 11.8271
356 2 7.41431 2.82863 11.9767
357 2 8.50414 2.56741 13.2857
358 4 10.1397 3.78035 12.1943
359 4 8.88124 4.67967 11.7858
360 4 9.5789 3.59163 10.6752
361 13 5.76187 5.83077 15.2018
362 5 9.13817 5.63616 15.0841
363 5 5.70296 2.91944 15.2907
364 5 6.13957 6.12528 18.2526
365 11 8.33282 2.58514 17.5763
366 9 9.41472 3.20826 18.3569
367 2 10.4297 3.18608 17.8483
368 2 9.43168 2.83254 19.3806
369 2 9.23742 4.29609 18.342
370 4 8.14127 1.67515 17.8403
371 4 8.62521 2.6018 16.5859
372 4 7.38713 3.06981 17.6798
373 13 5.84731 5.94467 21.2915
374 5 9.04185 6.0447 21.5026
375 5 5.87673 2.90468 21.4087
376 5 5.92632 5.89053 -0.412059
377 11 9.7594 3.81303 -0.410279
378 9 8.76867 2.71239 0.0168422
379 2 8.7895 2.73131 1.0246
380 2 9.13466 1.73899 -0.389685
381 2 7.75791 2.88255 -0.380767
382 4 10.5952 3.57603 0.203097
383 4 9.38047 4.77726 -0.338322
384 4 10.0842 3.70682 -1.37648
385 13 6.19538 5.89201 2.65009
386 5 9.13936 6.12606 2.40736
387 5 6.07344 2.84894 2.79037
388 5 6.52729 6.05205 5.64536
389 11 9.38883 3.48947 6.46813
390 9 8.75817 2.46659 5.49584
391 2 9.08332 2.66929 4.45804
392 2 7.71871 2.58042 5.60953
393 2 8.9446 1.48499 5.71469
394 4 10.4294 3.37277 6.53205
395 4 9.00348 3.30144 7.44498
396 4 9.2092 4.47465 6.24876
397 13 6.29809 12.3158 8.75148
398 5 9.25468 12.1032 8.70997
399 5 6.14084 9.28204 8.58683
400 5 5.94976 12.2409 11.6095
401 5 6.57545 15.3348 8.91233
402 11 8.95214 8.54004 12.5637
403 9 9.30204 9.42621 11.4174
404 2 8.81383 10.3771 11.4999
405 2 9.06138 8.85352 10.5446
406 2 10.418 9.58119 11.3967
407 4 9.17784 8.99662 13.4547
408 4 9.44931 7.60998 12.5581
409 4 7.97472 8.29361 12.6132
410 12 8.82735 14.3236 11.8521
411 6 8.8444 19.5584 11.9671
412 4 9.20318 13.3534 12.0176
413 4 8.21454 14.3177 11.0742
414 4 8.18425 14.6257 12.5561
415 10 9.95404 15.3294 11.6041
416 3 10.7301 15.1289 12.26
417 3 10.2849 15.2446 10.5439
418 7 9.19208 17.348 13.0474
419 6 8.81166 18.7059 13.1214
420 8 9.53586 16.7898 11.771
421 7 9.46391 17.5339 10.6513
422 6 9.08506 18.877 10.7262
423 1 9.13414 16.7281 13.9701
424 1 8.50367 19.1018 14.1345
425 1 9.78869 17.1284 9.72129
426 1 8.6101 20.5911 12.0333
427 1 9.194 19.441 9.82686
428 13 5.91315 12.0194 14.8163
429 5 9.08014 11.6767 14.6673
430 5 5.87378 9.02092 14.9595
431 5 5.92872 12.2 17.9042
432 5 6.1657 15.3003 14.6886
433 11 9.68572 8.65913 18.8511
434 9 8.83272 9.39979 17.8858
435 2 8.93672 9.01414 16.828
436 2 9.11465 10.4787 17.9555
437 2 7.75795 9.29178 18.1598
438 4 10.6793 8.74533 18.6779
439 4 9.44721 7.67667 18.8364
440 4 9.47531 8.92445 19.838
441 12 9.04594 14.205 17.3414
442 6 10.1075 19.3067 16.8629
443 4 8.74181 13.2195 17.5604
444 4 10.0786 14.1331 17.5201
445 4 8.93084 14.3687 16.309
446 10 8.45825 15.4312 18.1674
447 3 7.43654 15.4943 17.958
448 3 8.56838 15.3172 19.2143
449 7 8.25703 17.7955 17.3327
450 6 8.70999 19.045 16.8516
451 8 9.09483 16.8031 17.7697
452 7 10.4663 17.1209 17.7829
453 6 10.9668 18.3712 17.3982
454 1 7.19431 17.537 17.3636
455 1 8.09477 19.8313 16.4645
456 1 11.1802 16.4033 18.2226
457 1 10.4296 20.2721 16.5431
458 1 11.9891 18.5495 17.4561
459 13 6.26112 12.2831 20.9753
460 5 9.20692 12.3129 21.0978
461 5 6.21141 9.10195 21.1626
462 5 6.07746 12.1925 -0.623006
463 5 5.99871 15.3037 21.1914
464 11 8.20675 8.91141 -0.106771
465 9 9.39328 9.53898 -0.855423
466 2 9.30512 9.31065 -1.91556
467 2 10.1918 9.01492 -0.404336
468 2 9.35137 10.592 -0.631787
469 4 8.36464 8.99294 0.935406
470 4 8.05453 7.95882 -0.419735
471 4 7.27123 9.42361 -0.280623
472 12 8.61396 14.554 -0.599279
473 6 8.12657 19.3066 -0.6998
474 4 8.87785 13.5065 -0.693349
475 4 7.97936 14.7083 -1.41145
476 4 8.04778 14.6902 0.234272
477 10 9.83426 15.4127 -0.675214
478 3 10.3708 15.1059 0.229842
479 3 10.346 15.1082 -1.62279
480 7 8.93162 17.3981 0.447966
481 6 8.16997 18.592 0.474186
482 8 9.51117 16.8525 -0.746976
483 7 9.36782 17.5799 -1.97076
484 6 8.61503 18.7555 -1.92538
485 1 9.0999 16.8317 1.38277
486 1 7.65257 18.8333 1.37072
487 1 9.72661 17.1174 -2.89211
488 1 7.49287 20.1804 -0.695729
489 1 8.50945 19.3649 -2.82436
490 13 6.06196 12.3042 2.39652
491 5 9.10716 12.2097 2.33424
492 5 5.74243 9.09128 2.49032
493 5 5.97048 12.3233 5.68509
494 5 6.24655 15.5839 2.48622
495 11 9.75608 8.5336 6.09703
496 9 8.88778 9.51738 5.36315
497 2 7.79661 9.3787 5.65336
498 2 8.79195 9.17736 4.27713
499 2 9.19105 10.5289 5.53832
500 4 9.53664 8.69461 7.11018
501 4 10.7628 8.77399 6.0441
502 4 9.56142 7.58335 5.90455
503 12 8.78862 14.6972 5.32006
504 6 9.57031 19.7876 5.28743
505 4 7.83705 14.9479 5.48131
506 4 8.80206 13.7305 5.43645
507 4 8.99342 14.9037 4.31145
508 10 9.74387 15.5116 6.11849
509 3 9.70572 15.3402 7.23521
510 3 10.7355 15.1463 5.89437
511 7 8.39194 17.7068 5.71318
512 6 8.36777 19.1221 5.47838
513 8 9.64083 17.0114 5.80746
514 7 10.8009 17.7165 5.59409
515 6 10.778 19.0993 5.38278
516 1 7.4519 17.1753 5.81669
517 1 7.41265 19.6661 5.33564
518 1 11.7887 17.1889 5.64968
519 1 9.58308 20.9113 5.119
520 1 11.787 19.5932 5.45511
521 13 12.0059 -0.126695 8.807
522 5 15.1703 0.182299 8.87927
523 5 11.9796 -2.91803 8.88725
524 5 11.9764 -0.201177 12.0675
525 12 15.7141 -2.35888 11.8908
526 6 15.4211 -7.45134 11.6102
527 4 16.4362 -2.25929 12.534
528 4 15.339 -1.42513 11.7264
529 4 16.0214 -2.78623 11.0144
530 10 14.6412 -3.29181 12.4061
531 3 14.5178 -3.21843 13.4577
532 3 13.7547 -3.03532 11.8926
533 7 15.3751 -5.55153 13.1247
534 6 15.6717 -6.87034 12.821
535 8 14.8454 -4.75374 12.1068
536 7 14.6417 -5.32148 10.8145
537 6 15.0088 -6.63877 10.5683
538 1 15.7339 -5.20187 14.119
539 1 16.2746 -7.35131 13.5652
540 1 14.5549 -4.6705 9.92626
541 1 15.6649 -8.49008 11.4838
542 1 14.8959 -7.11847 9.6251
543 13 12.2201 -0.108993 15.07
544 5 15.3527 -0.159311 14.9653
545 5 12.145 -3.00793 15.372
546 5 12.0804 0.0466135 18.1479
547 12 14.6911 -2.50005 17.8367
548 6 15.5758 -7.4501 17.6665
549 4 13.6382 -2.67268 17.8061
550 4 15.0949 -2.58857 16.874
551 4 14.7422 -1.47882 18.031
552 10 15.4447 -3.34101 18.865
553 3 16.5296 -3.13238 18.8767
554 3 15.0221 -3.24638 19.8137
555 7 14.3131 -5.41024 18.0213
556 6 14.3296 -6.77832 17.6648
557 8 15.4786 -4.76691 18.4568
558 7 16.7118 -5.3825 18.1968
559 6 16.8001 -6.71939 17.768
560 1 13.3351 -5.01061 18.1592
561 1 13.4489 -7.35758 17.3723
562 1 17.5736 -4.77577 18.219
563 1 15.5619 -8.47437 17.3829
564 1 17.7143 -7.34007 17.5929
565 13 12.058 0.0281125 21.2968
566 5 15.2211 -0.0373771 21.2228
567 5 11.7861 -3.10772 20.8669
568 5 11.9509 -0.0708104 -0.374784
569 12 15.5153 -2.48306 0.0234009
570 6 15.8461 -7.47873 -0.824685
571 4 16.5527 -2.52463 -0.0458054
572 4 15.3135 -2.8699 0.990275
573 4 15.4051 -1.48144 0.0493204
574 10 14.8252 -3.31812 -1.02489
575 3 13.7544 -3.12385 -0.84994
576 3 15.055 -2.9478 -2.07029
577 7 15.5327 -5.44031 -2.14599
578 6 15.8994 -6.76336 -2.06259
579 8 15.2112 -4.79452 -0.929076
580 7 15.26 -5.45802 0.312235
581 6 15.6127 -6.77053 0.361545
582 1 15.4248 -4.93106 21.7009
583 1 16.2047 -7.23723 -2.93051
584 1 15.0206 -4.85412 1.16744
585 1 16.1378 -8.54516 -0.79119
586 1 15.6278 -7.20738 1.33004
587 13 12.1022 -0.0718109 2.58845
588 5 15.2017 0.257875 2.75953
589 5 12.7654 -3.08958 2.73781
590 5 12.2263 0.0572318 5.77705
591 12 15.5174 -2.15649 5.44683
592 6 16.4285 -7.25456 5.6267
593 4 16.505 -2.15682 5.45361
594 4 15.0948 -1.23311 5.68552
595 4 15.2394 -2.44345 4.48714
596 10 14.8614 -3.19116 6.41752
597 3 14.9722 -2.85651 7.47288
598 3 13.7937 -3.18283 6.24178
599 7 16.8007 -4.74612 5.87718
600 6 17.2449 -6.06272 5.49012
601 8 15.435 -4.57343 6.20512
602 7 14.5705 -5.68846 6.12951
603 6 15.0672 -6.99762 5.95426
604 1 17.5316 -3.9306 5.84994
605 1 18.2962 -6.13417 5.06952
606 1 13.5438 -5.36119 6.34324
607 1 16.7318 -8.17638 5.29811
608 1 14.4409 -7.83044 6.00237
609 13 12.3522 6.15392 8.83061
610 5 15.3591 6.37873 8.86834
611 5 11.9628 3.13774 8.94167
612 5 12.2638 6.17691 11.9709
613 11 14.6829 2.29812 11.9349
614 9 15.5893 3.34596 12.5686
615 2 15.2502 4.31699 12.2425
616 2 16.63 3.2356 12.3229
617 2 15.624 3.33123 13.7027
618 4 13.7638 2.30473 12.5245
619 4 15.009 1.31895 11.9569
620 4 14.6302 2.64431 11.002
621 13 12.388 6.0753 15.1027
622 5 15.4038 6.14489 15.6241
623 5 12.2645 2.96265 14.9768
624 5 12.2063 6.12182 18.3251
625 11 14.7391 3.48478 18.9115
626 9 15.7519 2.7801 17.986
627 2 16.7879 3.11618 18.2007
628 2 15.4992 3.00341 16.9003
629 2 15.6799 1.73197 18.2644
630 4 14.9707 3.35584 19.961
631 4 13.7731 3.12982 18.7399
632 4 14.5925 4.48457 18.6598
633 13 12.2526 6.18353 21.4828
634 5 15.238 6.01849 21.5269
635 5 12.1534 3.20929 21.3477
636 5 12.3174 6.07398 -0.431966
637 11 15.7684 3.37291 0.294719
638 9 14.9465 2.49986 -0.636968
639 2 13.854 2.7751 -0.616899
640 2 15.0341 1.48823 -0.299547
641 2 15.3674 2.60205 -1.66318
642 4 16.8205 3.12402 0.226198
643 4 15.3768 3.28036 1.25918
644 4 15.64 4.41028 0.0234632
645 13 12.2765 6.19677 2.77057
646 5 15.4379 6.00006 2.81163
647 5 12.202 3.13817 2.54576
648 5 12.2348 6.07087 5.80997
649 11 14.7155 2.67526 5.30427
650 9 15.5403 3.54921 6.19246
651 2 15.2945 4.61056 6.17513
652 2 16.5642 3.40225 5.91993
653 2 15.4541 3.30609 7.27723
654 4 13.6662 2.63998 5.40665
655 4 14.9162 1.72892 5.46128
656 4 14.8642 2.86717 4.32676
657 13 12.2991 12.2447 8.71066
658 5 15.5426 12.0952 8.59281
659 5 12.3356 9.17027 8.63977
660 5 12.6788 12.0874 11.7621
661 5 12.7651 15.1062 8.59762
662 11 15.4166 9.57365 11.1287
663 9 15.5174 8.8082 12.4493
664 2 15.3131 7.77989 12.2358
665 2 14.7726 9.33396 13.0694
666 2 16.5506 8.95292 12.8333
667 4 15.6884 10.537 11.2274
668 4 14.469 9.72643 10.7399
669 4 16.089 9.14774 10.5057
670 12 15.459 14.7783 11.1677
671 6 14.1416 19.5951 12.1078
672 4 14.5832 14.3048 11.4299
673 4 16.152 14.0508 10.889
674 4 15.2892 15.2194 10.2266
675 10 15.9526 15.7325 12.2482
676 3 15.6281 15.1402 13.2086
677 3 17.0574 15.812 12.1432
678 7 13.8874 17.1755 12.1667
679 6 13.3452 18.4969 12.1674
680 8 15.3019 17.1019 12.1994
681 7 16.1283 18.2423 12.2352
682 6 15.5464 19.4866 12.1454
683 1 13.366 16.2653 12.2167
684 1 12.2718 18.5626 12.2331
685 1 17.2773 18.1002 12.4042
686 1 13.73 20.5199 12.0012
687 1 16.1686 20.3197 12.3417
688 13 12.2308 12.1738 14.9103
689 5 15.4565 11.9075 15.0946
690 5 12.0994 9.01623 15.1533
691 5 12.1523 12.1342 17.9988
692 5 12.2615 15.1588 15.1768
693 11 14.899 9.43256 17.6017
694 9 15.7121 8.65613 18.5974
695 2 15.3298 7.6044 18.5285
696 2 15.5568 9.11518 19.6457
697 2 16.7772 8.73355 18.3491
698 4 13.9127 9.40422 17.8019
699 4 15.0064 8.95611 16.6288
700 4 15.1532 10.3697 17.4587
701 12 14.8246 14.457 17.6353
702 6 14.9118 19.4145 17.1349
703 4 14.7717 14.5534 16.6087
704 4 13.8905 14.5382 18.0424
705 4 15.1469 13.5407 17.8129
706 10 15.791 15.3936 18.2482
707 3 15.6223 15.2998 19.3501
708 3 16.856 15.1455 18.0508
709 7 15.6394 17.1284 16.4783
710 6 15.237 18.4127 16.152
711 8 15.6075 16.764 17.7856
712 7 15.3787 17.7214 18.7686
713 6 15.032 19.0212 18.4397
714 1 15.6496 16.3634 15.7533
715 1 15.1473 18.5611 15.0932
716 1 15.1966 17.3977 19.8315
717 1 14.6951 20.3661 16.8205
718 1 14.8146 19.6836 19.2497
719 13 12.3417 12.2656 21.0682
720 5 15.3966 12.2522 20.9577
721 5 12.4623 9.28304 21.1092
722 5 12.4126 12.0856 -0.496149
723 5 12.6548 15.3564 20.8793
724 11 15.0383 9.6487 -1.28567
725 9 15.6583 8.96845 -0.0193389
726 2 16.7993 9.0657 -0.105219
727 2 15.318 7.87872 0.186324
728 2 15.359 9.61423 0.815696
729 4 15.1725 10.6899 -1.32126
730 4 14.0912 9.40972 -1.36095
731 4 15.4497 9.34662 -2.21452
732 12 14.9691 14.705 0.0230027
733 6 14.1821 19.6631 -0.476779
734 4 14.9891 14.8245 1.01401
735 4 15.3403 13.7431 -0.0647335
736 4 13.941 14.7112 -0.0918318
737 10 15.7274 15.651 -0.939724
738 3 16.8193 15.6245 -0.774232
739 3 15.6212 15.2559 -1.90238
740 7 13.7966 17.3594 -0.670459
741 6 13.2943 18.6107 -0.592218
742 8 15.203 17.0662 -0.768353
743 7 16.0623 18.1622 -0.699082
744 6 15.5467 19.4485 -0.681805
745 1 13.094 16.5164 -0.432464
746 1 12.258 18.7681 -0.690793
747 1 17.1955 17.9809 -0.72424
748 1 13.8603 20.6954 -0.44268
749 1 16.207 20.2907 -0.505557
750 13 12.0856 12.2305 2.67138
751 5 15.213 12.3106 2.53394
752 5 12.2643 9.14036 2.60544
753 5 12.0408 12.1399 5.64072
754 5 12.3359 15.2301 2.78049
755 11 16.3637 8.60014 5.98161
756 9 15.1827 9.44549 5.49342
757 2 15.4059 10.3955 5.82991
758 2 14.266 9.23435 6.02623
759 2 15.1019 9.42972 4.43955
760 4 16.3057 7.5644 5.65132
761 4 16.4739 8.48731 7.01303
762 4 17.2277 8.85211 5.45983
763 12 14.8882 14.4172 5.30995
764 6 15.3488 19.6009 5.19186
765 4 13.8915 14.6414 5.50375
766 4 14.9692 13.4065 5.60537
767 4 15.0165 14.5605 4.28304
768 10 15.8459 15.4707 6.02975
769 3 15.7382 15.2627 7.06246
770 3 16.8809 15.262 5.8501
771 7 15.8072 17.8529 6.77835
772 6 15.6186 19.2088 6.50114
773 8 15.5925 16.9009 5.74687
774 7 15.4005 17.2937 4.42869
775 6 15.293 18.6862 4.16046
776 1 15.9719 17.4709 7.80023
777 1 15.6617 19.9199 7.32468
778 1 15.4245 16.5628 3.56765
779 1 15.2771 20.6696 5.1017
780 1 15.0171 19.004 3.17943
781 13 18.4671 0.139749 8.80528
782 5 21.4938 0.0365563 8.91919
783 5 18.4153 -3.14312 8.96458
784 5 18.3221 0.15793 11.9958
785 12 20.9679 -2.37221 11.6393
786 6 21.5428 -7.34911 11.3254
787 4 20.023 -2.77383 11.5238
788 4 21.2899 -2.34507 10.6933
789 4 20.7572 -1.4272 12.0085
790 10 -3.09592 -3.27259 12.6082
791 3 -2.10849 -2.87036 12.6349
792 3 21.2961 -3.20441 13.5624
793 7 20.4427 -5.37748 11.9649
794 6 20.3136 -6.76982 11.6776
795 8 21.6632 -4.6769 12.1213
796 7 -1.99472 -5.29205 11.811
797 6 -2.08396 -6.63392 11.3777
798 1 19.526 -4.85071 12.052
799 1 19.4268 -7.3519 11.6709
800 1 -1.04316 -4.82138 11.7976
801 1 21.5033 -8.38501 11.1527
802 1 -1.15651 -7.08044 11.168
803 13 18.4664 -0.057789 15.2109
804 5 21.5465 -0.0592141 15.3739
805 5 18.2289 -3.004 15.0003
806 5 18.4259 -0.211411 18.3533
807 12 -3.013 -2.31896 18.7133
808 6 -2.92421 -7.61375 18.2794
809 4 21.5081 -2.3015 19.6851
810 4 21.6559 -1.42767 18.3031
811 4 -1.98957 -2.52283 18.6521
812 10 21.0673 -3.33167 17.8619
813 3 19.9829 -3.16418 18.0265
814 3 21.2317 -3.12674 16.8063
815 7 21.2444 -5.74616 16.8977
816 6 21.5266 -7.08788 17.0515
817 8 21.3159 -4.86923 18.0374
818 7 21.6113 -5.43561 19.2993
819 6 -2.8807 -6.78349 19.4108
820 1 21.1054 -5.34421 15.879
821 1 21.5427 -7.71833 16.1896
822 1 21.7171 -4.76699 20.2027
823 1 -2.67983 -8.65196 18.333
824 1 -2.56885 -7.15656 20.3763
825 13 18.2572 -0.318487 21.4231
826 5 21.4059 0.178151 21.4332
827 5 18.5913 -3.11209 21.4085
828 5 18.2827 -0.0628962 -0.436894
829 12 21.2612 -2.3743 -0.929685
830 6 21.4064 -7.556 -0.985201
831 4 -3.06164 -2.33362 -1.83471
832 4 21.4224 -1.4148 -0.524584
833 4 20.3245 -2.51054 -1.28065
834 10 -3.0542 -3.4193 0.128553
835 3 -2.02248 -3.15519 0.328435
836 3 21.2129 -3.36379 1.07747
837 7 -2.01372 -5.61884 -0.547298
838 6 -2.07569 -6.98856 -0.857065
839 8 21.6566 -4.84173 -0.388015
840 7 20.4086 -5.40936 -0.444848
841 6 20.255 -6.74589 -0.805
842 1 -1.04715 -5.20054 -0.436732
843 1 -1.22659 -7.61001 -0.847168
844 1 19.5685 -4.75653 -0.37153
845 1 21.1707 -8.63135 -1.11506
846 1 19.3117 -7.18284 -0.759091
847 13 18.2787 -0.0889437 2.94817
848 5 21.3763 -0.181579 2.57705
849 5 18.0575 -3.15246 2.63193
850 5 18.3314 0.000970286 5.81634
851 12 -2.62387 -2.37574 5.70931
852 6 21.5447 -7.16927 4.25052
853 4 -2.73174 -1.56332 6.3165
854 4 -2.54958 -2.05844 4.7909
855 4 -1.64906 -2.76309 5.77414
856 10 21.0426 -3.29051 6.00882
857 3 21.0512 -3.38077 7.06915
858 3 20.1037 -2.77729 5.63782
859 7 21.2514 -5.69885 6.15453
860 6 21.2862 -6.99788 5.62452
861 8 21.2755 -4.60228 5.32548
862 7 21.3447 -4.72079 3.93844
863 6 21.6201 -6.00998 3.41132
864 1 21.0742 -5.46384 7.22757
865 1 20.9521 -7.87958 6.15712
866 1 21.2894 -3.90567 3.2343
867 1 21.4388 -8.09655 3.74595
868 1 21.5698 -6.04691 2.30418
869 13 18.611 6.30379 9.03132
870 5 21.6881 6.22923 8.97964
871 5 18.5089 3.25006 8.79585
872 5 18.3747 6.42884 12.0214
873 11 21.2403 2.29155 12.7938
874 9 21.4699 3.33014 11.6723
875 2 -2.29749 3.58994 11.6938
876 2 20.9988 4.28237 11.9774
877 2 21.2458 2.96143 10.6914
878 4 21.4926 2.69154 13.7237
879 4 21.6021 1.33199 12.7228
880 4 20.2131 2.22403 12.7863
881 13 18.6239 5.96876 15.3726
882 5 21.5047 6.04557 14.7041
883 5 18.5827 2.97641 15.0303
884 5 18.8525 6.0229 18.4786
885 11 21.5664 3.41778 19.2614
886 9 21.4693 2.7891 17.8647
887 2 -3.09409 3.51612 17.1092
888 2 20.4443 2.43733 17.7394
889 2 -2.60023 2.03101 17.7922
890 4 -2.62321 4.22759 19.272
891 4 -3.08454 2.76346 20.0519
892 4 20.6476 3.78678 19.5192
893 13 18.3269 6.08648 21.5246
894 5 21.545 6.35064 21.3993
895 5 18.1848 3.19344 21.5132
896 5 18.5179 5.97968 -0.286195
897 11 21.2242 2.48759 0.0317411
898 9 -2.91186 3.58767 -0.780208
899 2 -1.83836 3.50478 -0.602258
900 2 21.5627 4.58506 -0.580643
901 2 -3.02034 3.37347 -1.88039
902 4 21.576 2.45304 1.05933
903 4 21.349 1.56465 -0.350843
904 4 20.253 2.67075 0.13578
905 13 18.5013 5.97044 2.76684
906 5 21.6013 6.02412 2.31308
907 5 18.3343 3.09259 2.92121
908 5 18.7127 6.13509 5.78018
909 11 -2.76329 3.43359 6.7353
910 9 21.2109 2.85256 5.59678
911 2 20.1409 3.15086 5.68836
912 2 21.4221 1.79102 5.4139
913 2 21.6402 3.39224 4.72774
914 4 -3.05148 2.97336 7.63767
915 4 -2.99904 4.38339 6.6896
916 4 -1.7802 3.34038 6.56705
917 13 18.675 12.3734 8.75324
918 5 21.6733 12.332 8.80588
919 5 18.5935 9.23686 8.72949
920 5 18.0996 11.9951 11.9181
921 5 18.4094 15.3431 9.15586
922 11 20.9694 8.97398 12.5046
923 9 -2.95921 9.59749 11.5136
924 2 -3.00953 10.7065 11.6425
925 2 21.5163 9.29083 10.5003
926 2 -1.93415 9.23774 11.7089
927 4 21.0268 7.92664 12.4713
928 4 19.9772 9.32714 12.3579
929 4 21.2334 9.21311 13.4446
930 12 21.2261 14.893 12.2047
931 6 21.6292 19.9552 11.9832
932 4 21.3529 14.9597 13.2098
933 4 21.3565 13.8526 12.1063
934 4 20.2245 15.0664 12.0143
935 10 -2.70257 15.753 11.3127
936 3 -1.68435 15.3457 11.3995
937 3 -2.9371 15.4722 10.3235
938 7 21.5225 17.7396 12.758
939 6 21.41 19.0957 13.0858
940 8 -2.86543 17.2122 11.543
941 7 -2.42547 18.0762 10.5752
942 6 -2.65542 19.4393 10.7454
943 1 21.2643 17.0279 13.5476
944 1 20.989 19.5287 13.9946
945 1 -2.15793 17.6819 9.59161
946 1 21.3792 20.9949 12.0629
947 1 -2.44621 20.1065 9.99053
948 13 18.5521 12.269 15.201
949 5 21.5401 12.2801 14.8505
950 5 18.5901 8.94614 15.3389
951 5 18.6132 12.2737 18.1774
952 5 18.7617 15.1892 14.9457
953 11 20.5953 9.30145 18.791
954 9 -3.00402 9.37392 17.8289
955 2 -2.16836 9.06154 18.5019
956 2 -2.9025 10.3549 17.4376
957 2 21.6117 8.59728 17.1653
958 4 20.4826 10.1665 19.3953
959 4 20.5317 8.46559 19.4474
960 4 19.7339 9.27183 18.2294
961 12 21.4357 14.7161 17.5946
962 6 20.9488 19.7207 18.2491
963 4 20.3877 14.643 17.7883
964 4 -3.02099 13.7811 17.6316
965 4 21.4509 14.8763 16.5739
966 10 -2.55084 15.6116 18.4273
967 3 -2.78735 15.1569 19.4233
968 3 -1.47231 15.4973 18.2514
969 7 -2.10942 18.0797 18.3459
970 6 -2.52999 19.4429 18.2458
971 8 -3.0354 17.0093 18.3599
972 7 20.4536 17.3068 18.3621
973 6 20.0207 18.6728 18.272
974 1 -1.07084 17.82 18.2448