LAMMPS (23 Jun 2022)
OMP_NUM_THREADS environment is not set. Defaulting to 1 thread. (src/src/comm.cpp:98)
  using 1 OpenMP thread(s) per MPI task
Reading data file ...
  orthogonal box = (-3.1 -69.095259 -3.1) to (21.7 81.495259 21.7)
  2 by 16 by 4 MPI processor grid
  reading atoms ...
  1040 atoms
  scanning bonds ...
  4 = max bonds/atom
  scanning angles ...
  11 = max angles/atom
  scanning dihedrals ...
  21 = max dihedrals/atom
  reading bonds ...
  800 bonds
  reading angles ...
  1344 angles
  reading dihedrals ...
  1536 dihedrals
Finding 1-2 1-3 1-4 neighbors ...
  special bond factors lj:    0        0        0.5     
  special bond factors coul:  0        0        0.8333333333333334
     4 = max # of 1-2 neighbors
     7 = max # of 1-3 neighbors
    14 = max # of 1-4 neighbors
    16 = max # of special neighbors
  special bonds CPU = 0.004 seconds
  read_data CPU = 0.053 seconds
PPPM initialization ...
  using 12-bit tables for long-range coulomb (src/src/kspace.cpp:342)
  G vector (1/distance) = 0.16060837
  grid = 8 30 8
  stencil order = 5
  estimated absolute RMS force accuracy = 0.029618246
  estimated relative force accuracy = 8.9194468e-05
  using double precision FFTW3
  3d grid and FFT values/proc = 504 16
Generated 0 of 78 mixed pair_coeff terms from arithmetic mixing rule
Neighbor list info ...
  update every 1 steps, delay 10 steps, check yes
  max neighbors/atom: 10000, page size: 100000
  master list distance cutoff = 17
  ghost atom cutoff = 17
  binsize = 8.5, bins = 3 18 3
  3 neighbor lists, perpetual/occasional/extra = 3 0 0
  (1) pair buck/coul/long, perpetual, skip from (3)
      attributes: half, newton off
      pair build: skip
      stencil: none
      bin: none
  (2) pair lj/cut/coul/long, perpetual, skip from (3)
      attributes: half, newton off
      pair build: skip
      stencil: none
      bin: none
  (3) neighbor class addition, perpetual
      attributes: half, newton off
      pair build: half/bin/newtoff
      stencil: full/bin/3d
      bin: standard
Setting up Verlet run ...
  Unit style    : real
  Current step  : 0
  Time step     : 1
Per MPI rank memory allocation (min/avg/max) = 19.58 | 19.73 | 20.15 Mbytes
   Step          Temp          Volume        Density         TotEng         PotEng         E_bond        E_angle        E_dihed         E_coul         E_long         E_vdwl        Enthalpy        Press     
         0      298.000000   92619.192734       0.622799  -23223.575832  -24146.500202      22.970839      26.874948       4.403687  -18457.474877  -11846.078831    6102.804032    5940.011180   21590.567550
      1000       95.656333   92619.192734       0.622799  -30211.087563  -30507.341123      10.294118      46.134417      32.904154  -18732.654429  -11929.690982      65.671598  -29310.530140     666.706255
      2000       71.458283   92619.192734       0.622799  -30364.221675  -30585.532381      13.846735      40.780211      19.654617  -18517.486402  -11931.083155    -211.244388  -31123.298128    -561.964186
      3000       57.495078   92619.192734       0.622799  -30451.356091  -30629.421890      13.196151      41.693802      17.936590  -18553.285902  -11929.613508    -219.349023  -31404.359751    -705.533579
      4000       53.119984   92619.192734       0.622799  -30492.943369  -30657.459234       9.894341      37.202467      19.769709  -18705.428954  -11928.699333     -90.197465  -30371.162088      90.157873
      5000       47.653036   92619.192734       0.622799  -30526.301509  -30673.885900       9.263609      41.187049      19.383657  -18716.907971  -11931.631455     -95.180790  -30338.931647     138.714818
      6000       46.461965   92619.192734       0.622799  -30554.504692  -30698.400261      10.174686      38.980752      16.528831  -18672.982834  -11931.285473    -159.816224  -30819.089925    -195.879381
      7000       40.445114   92619.192734       0.622799  -30575.209126  -30700.470137      11.021676      40.493412      20.319709  -18647.516543  -11931.271073    -193.517318  -31107.896695    -394.362563
      8000       38.885855   92619.192734       0.622799  -30592.210522  -30712.642412      10.919374      38.083891      20.518989  -18681.022368  -11933.225581    -167.916717  -30857.488683    -196.392373
      9000       36.918948   92619.192734       0.622799  -30601.313441  -30715.653698       9.899436      38.723485      16.388083  -18727.901052  -11930.575449    -122.188201  -30587.846479       9.969945
     10000       35.086782   92619.192734       0.622799  -30612.373461  -30721.039386      10.393258      39.354184      19.440438  -18693.813446  -11931.534070    -164.879750  -30946.910846    -247.666791
Loop time of 17.8633 on 128 procs for 10000 steps with 1040 atoms

Performance: 48.367 ns/day, 0.496 hours/ns, 559.806 timesteps/s
99.4% CPU use with 128 MPI tasks x 1 OpenMP threads

MPI task timing breakdown:
Section |  min time  |  avg time  |  max time  |%varavg| %total
---------------------------------------------------------------
Pair    | 0.0021212  | 2.1637     | 13.278     | 281.0 | 12.11
Bond    | 0.00092502 | 0.06002    | 0.28895    |  42.1 |  0.34
Kspace  | 2.7293     | 14.382     | 16.777     | 115.6 | 80.51
Neigh   | 0.10533    | 0.11392    | 0.121      |   1.7 |  0.64
Comm    | 0.0023746  | 0.17585    | 0.56098    |  46.9 |  0.98
Output  | 0.0114     | 0.011427   | 0.011758   |   0.0 |  0.06
Modify  | 0.86498    | 0.8731     | 0.88907    |   0.4 |  4.89
Other   |            | 0.08286    |            |       |  0.46

Nlocal:          8.125 ave          45 max           0 min
Histogram: 96 0 0 0 5 7 4 0 6 10
Nghost:        848.578 ave        2935 max           0 min
Histogram: 64 16 0 0 16 0 0 16 0 16
Neighs:              0 ave           0 max           0 min
Histogram: 128 0 0 0 0 0 0 0 0 0

Total # of neighbors = 0
Ave neighs/atom = 0
Ave special neighs/atom = 6.8923077
Neighbor list builds = 72
Dangerous builds = 0
PPPM initialization ...
  using 12-bit tables for long-range coulomb (src/src/kspace.cpp:342)
  G vector (1/distance) = 0.16060837
  grid = 8 30 8
  stencil order = 5
  estimated absolute RMS force accuracy = 0.029618246
  estimated relative force accuracy = 8.9194468e-05
  using double precision FFTW3
  3d grid and FFT values/proc = 504 16
Generated 0 of 78 mixed pair_coeff terms from arithmetic mixing rule
Setting up Verlet run ...
  Unit style    : real
  Current step  : 10000
  Time step     : 1
Per MPI rank memory allocation (min/avg/max) = 19.58 | 19.73 | 20.16 Mbytes
   Step          Temp          Volume        Density         TotEng         PotEng         E_bond        E_angle        E_dihed         E_coul         E_long         E_vdwl        Enthalpy        Press     
     10000       35.086782   92619.192734       0.622799  -30612.373461  -30721.039386      10.393258      39.354184      19.440438  -18693.813446  -11931.534070    -164.879750  -30946.910846    -247.666791
     11000      150.751812   94274.997021       0.611861  -29772.041227  -30238.928882      19.396594      68.411919      49.432106  -18249.104420  -11928.901632    -198.163450  -30470.906235    -508.300901
     12000      286.709886   96029.146804       0.600684  -28953.737573  -29841.695762      40.430895     123.375752     102.681859  -18147.296309  -11922.690446     -38.197512  -29181.654955    -162.741565
     13000      305.250330   95067.284756       0.606761  -28854.744129  -29800.123216      68.688848     154.372520      98.320535  -18190.564066  -11921.506316      -9.434737  -28755.358068      71.683384
     14000      292.463648   95923.793078       0.601344  -28882.680439  -29788.458384      86.863188     175.988614     115.416858  -18161.016921  -11919.752088     -85.958036  -29373.707809    -350.997051
     15000      306.946536   95424.066940       0.604493  -28858.916494  -29809.548838     100.742987     201.313840     107.495762  -18189.205208  -11924.705442    -105.190776  -29365.506761    -364.018144
     16000      299.029034   94995.243245       0.607222  -28857.014581  -29783.125930     110.017517     199.076954     138.044050  -18251.878285  -11927.147874     -51.238292  -28503.015697     255.519556
     17000      309.634327   94858.650641       0.608096  -28862.584972  -29821.541571     125.837581     217.449379     107.005529  -18258.445861  -11920.126223     -93.261976  -29034.097647    -123.977646
     18000      299.193431   93741.171512       0.615345  -28902.229713  -29828.850210     133.605280     234.075943     116.439753  -18408.985678  -11922.400349      18.414841  -28873.869829      20.744271
     19000      285.690727   93881.122178       0.614428  -28972.937875  -29857.739667     148.336142     233.786202     106.546556  -18387.424696  -11924.722878     -34.260993  -29209.187455    -172.550763
     20000      304.149197   93557.758597       0.616551  -28881.584622  -29823.553434     152.430480     239.044633     135.244169  -18332.409556  -11927.730603     -90.132557  -28486.390385     289.637576
     21000      300.975408   93523.413997       0.616778  -28916.977508  -29849.116899     174.377920     239.708924      93.785192  -18455.250723  -11926.855049      25.116837  -28645.180373     199.273080
     22000      292.185724   93463.856896       0.617171  -28961.471289  -29866.388487     167.822810     223.467003     110.341420  -18419.470255  -11927.171131     -21.378334  -28608.212389     259.163314
     23000      296.889882   93761.113495       0.615214  -28930.158451  -29849.644718     189.435229     243.271362     113.967385  -18411.833793  -11925.531487     -58.953414  -29331.468276    -293.481781
     24000      300.590816   93867.203954       0.614519  -28930.807743  -29861.756030     178.090385     250.350094     113.756753  -18422.514876  -11926.192628     -55.245757  -28803.435894      93.042995
     25000      308.498222   93875.243657       0.614466  -28944.212165  -29899.650175     182.742911     252.885996     101.409012  -18397.707482  -11926.779208    -112.201404  -29163.867896    -160.441079
     26000      295.835157   94357.171206       0.611328  -28962.540427  -29878.760143     205.113987     260.545951      99.818893  -18321.582621  -11928.449761    -194.206592  -29661.727298    -508.092124
     27000      285.639535   92977.911055       0.620396  -28905.742988  -29790.386234     220.591251     273.156969     126.651657  -18473.637286  -11923.262728     -13.886097  -28851.360476      40.105468
     28000      303.735173   94174.654887       0.612513  -28953.098941  -29893.785494     199.216290     271.886520     109.687199  -18456.956194  -11928.428867     -89.190442  -29365.953155    -300.598491
     29000      305.619003   92764.219527       0.621825  -28905.459546  -29851.980438     218.008738     273.023755     107.039139  -18501.651628  -11928.638961     -19.761481  -28736.311819     125.028719
     30000      289.259779   93990.976989       0.613709  -28971.196354  -29867.051720     224.440323     275.762472     118.331885  -18412.515287  -11928.562182    -144.508931  -29196.363048    -164.263888
     31000      302.219588   92795.243625       0.621618  -28933.698433  -29869.691126     224.960259     267.747984     124.366846  -18498.284985  -11926.518843     -61.962388  -29072.514802    -102.574421
     32000      296.139731   93024.058413       0.620089  -28965.780597  -29882.943599     221.310142     273.762209     114.822250  -18593.588537  -11926.712124      27.462460  -28958.391439       5.446579
     33000      302.287130   93068.803110       0.619790  -28905.035822  -29841.237695     218.318107     287.298320     119.608507  -18478.056701  -11925.383168     -63.022761  -29031.049327     -92.840415
     34000      305.006948   93034.465029       0.620019  -28919.505285  -29864.130603     230.691579     276.588805     112.131069  -18528.386244  -11926.216216     -28.939596  -28562.919679     262.811313
     35000      292.926490   93061.811029       0.619837  -28957.042154  -29864.253549     225.522017     262.509408      96.921444  -18517.677072  -11925.260949      -6.268397  -28637.539006     235.411542
     36000      287.291533   93530.437096       0.616731  -28979.165435  -29868.925023     216.810966     305.309364     113.755777  -18496.905036  -11928.472757     -79.423336  -28942.326185      27.007347
     37000      289.156212   93497.278099       0.616950  -28947.138590  -29842.673203     226.506314     313.257286     107.693999  -18500.351724  -11927.202691     -62.576387  -29165.329606    -160.015483
     38000      300.205702   92892.122293       0.620969  -28922.755241  -29852.510806     247.117714     270.684947     119.342022  -18512.644203  -11927.633634     -49.377651  -29006.776808     -62.020605
     39000      299.550834   92968.424571       0.620460  -28946.065720  -29873.793119     233.783211     291.308635     114.577197  -18563.280308  -11927.679313     -22.502541  -28852.484353      69.020488
     40000      295.544008   92923.665740       0.620759  -28923.875876  -29839.193888     244.248005     292.111685     120.098611  -18476.992906  -11925.613045     -93.046237  -29409.996344    -358.708513
     41000      292.077562   93293.117211       0.618300  -28968.512889  -29873.095103     244.059921     289.340377     102.834846  -18576.625977  -11929.498222      -3.206048  -28906.104666      45.868688
     42000      306.187059   92296.044605       0.624980  -28915.733299  -29864.013495     238.445761     290.414451     110.830013  -18599.011219  -11926.466561      21.774060  -28751.233382     122.209989
     43000      302.248143   93737.899169       0.615366  -28938.593377  -29874.674505     222.274088     299.786523     110.519786  -18490.839683  -11927.813333     -88.601886  -28976.450753     -27.692324
     44000      294.930741   92555.470525       0.623228  -28978.177866  -29891.596550     232.506731     277.289382     102.826320  -18552.431431  -11924.720235     -27.067317  -28568.713939     303.345576
     45000      301.247586   93224.620356       0.618755  -28927.050602  -29860.032945     231.937594     294.856562     104.558130  -18556.779944  -11928.073464      -6.531823  -28495.892140     317.124942
     46000      294.102102   92369.552949       0.624482  -28971.316108  -29882.168446     238.194884     285.921288     112.134342  -18526.522086  -11926.113464     -65.783409  -29218.779227    -183.698560
     47000      287.032612   92819.743424       0.621454  -28980.586373  -29869.544066     228.695195     296.676699     102.482203  -18565.352102  -11921.165229     -10.880833  -28852.629601      94.525073
     48000      289.956081   93576.310312       0.616429  -28968.816434  -29866.828290     237.867920     304.198432     109.460060  -18538.481890  -11928.530189     -51.342624  -28754.219275     157.246926
     49000      292.123039   92478.052499       0.623750  -28960.995679  -29865.718737     252.667959     279.188154     106.662404  -18574.440689  -11928.799367      -0.997198  -28752.162935     154.840309
     50000      295.990271   93063.237946       0.619828  -28947.297654  -29863.997768     237.166744     277.622567     117.914074  -18584.056560  -11923.183809      10.539216  -28966.155730     -13.894514
     51000      294.055491   91891.833597       0.627729  -28957.514028  -29868.222010     228.509480     280.072768     105.473260  -18556.049682  -11922.602570      -3.625266  -28307.654959     484.915847
     52000      292.953100   93153.410731       0.619228  -29007.987192  -29915.281000     220.085265     278.295719     102.467605  -18561.648881  -11927.206419     -27.274289  -29026.902730     -13.923360
     53000      299.984430   92796.939109       0.621606  -28948.678888  -29877.749160     226.971580     300.961478     107.977209  -18529.674149  -11926.873340     -57.111938  -28988.217174     -29.215162
     54000      291.490716   92606.589043       0.622884  -28961.156107  -29863.920823     236.763775     302.418272     114.534604  -18533.223488  -11927.375605     -57.038381  -28697.499956     195.218122
     55000      313.166482   92961.953054       0.620503  -28924.941584  -29894.837484     230.164374     284.048180     110.316871  -18586.905308  -11927.505061      -4.956540  -28437.598670     359.462448
     56000      299.876942   92374.261324       0.624451  -28932.196467  -29860.933841     254.101028     285.465549     112.728300  -18507.431963  -11927.928992     -77.867763  -29412.855245    -356.787812
     57000      296.602052   93445.881591       0.617289  -28987.081932  -29905.676771     245.880927     275.521276     113.117930  -18569.538378  -11924.822396     -45.836129  -29060.173362     -53.632792
     58000      305.563040   92330.176604       0.624749  -28937.810171  -29884.157742     247.304593     298.382571     104.236132  -18581.831353  -11926.272894     -25.976791  -28553.605104     285.327435
     59000      308.439319   92098.799714       0.626318  -28950.700922  -29905.956505     244.276727     292.986043     107.987355  -18574.800068  -11929.720596     -46.685967  -29061.813225     -82.724145
     60000      311.277011   93614.378404       0.616178  -28921.414373  -29885.458465     244.999201     294.176655     108.922179  -18557.341149  -11924.831175     -51.384175  -29526.430145    -443.147444
     61000      304.588366   92301.416014       0.624943  -28926.726489  -29870.055433     255.663554     291.043793     101.956884  -18614.417012  -11926.132369      21.829718  -28653.726270     202.805039
     62000      297.773986   92562.618573       0.623180  -28941.895182  -29864.119573     258.036492     288.099674     105.819686  -18611.474768  -11926.419331      21.818673  -28367.959645     425.159213
     63000      294.741418   92904.264636       0.620888  -28942.017622  -29854.849963     255.225747     317.243305      98.199737  -18541.699813  -11924.282905     -59.536034  -29168.088430    -166.852587
     64000      292.799124   92820.013078       0.621452  -29009.223701  -29916.040636     242.670678     270.544347      99.865078  -18551.884369  -11925.474315     -51.762055  -29280.965775    -200.742520
     65000      303.096879   92638.238892       0.622671  -28962.947666  -29901.657385     243.674554     291.284068     100.894331  -18585.101461  -11925.437343     -26.971534  -29127.022846    -121.444181
     66000      314.753035   92375.646296       0.624441  -28902.274774  -29877.084326     263.192903     284.755903      99.689127  -18567.905513  -11925.120034     -31.696713  -28604.911886     220.725946
     67000      300.202193   93000.369374       0.620247  -28977.292268  -29907.036963     247.867002     281.733360     101.692205  -18546.098024  -11925.709748     -66.521759  -29257.435372    -206.547229
     68000      294.553306   92489.480748       0.623673  -28993.246004  -29905.495749     247.698509     298.224789      95.095625  -18591.287105  -11924.707815     -30.519751  -28837.522794     115.447655
     69000      300.028371   92780.258415       0.621718  -28958.582511  -29887.788871     253.875309     281.747059      90.279551  -18534.927576  -11927.919443     -50.843771  -28869.227874      66.036740
     70000      291.406812   92675.311135       0.622422  -28954.290413  -29856.795274     249.377601     295.693708     103.003964  -18521.288332  -11925.770173     -57.812042  -29020.670162     -49.112910
     71000      289.694857   92718.611822       0.622131  -29060.473154  -29957.675983     229.394523     260.481693      91.951696  -18566.489180  -11923.898933     -49.115782  -29432.608947    -275.206466
     72000      299.162394   93045.917518       0.619943  -28929.985125  -29856.509499     241.044202     294.962708     108.555982  -18478.915807  -11927.869707     -94.286878  -28697.704504     171.174775
     73000      295.081654   92699.469540       0.622260  -28977.674121  -29891.560194     245.486501     308.854642      99.784368  -18596.087892  -11924.492025     -25.105789  -29074.576805     -71.677470
     74000      294.472006   92189.807544       0.625700  -28975.115154  -29887.113108     254.786102     272.368905     104.427039  -18576.413309  -11926.959226     -15.322619  -28798.991369     130.996355
     75000      294.520006   92891.869147       0.620971  -28957.097247  -29869.243860     270.327286     312.572013      97.834693  -18561.104317  -11925.807214     -63.066320  -29462.255451    -372.884060
     76000      308.875203   92145.743781       0.625999  -28953.739861  -29910.345405     249.303563     301.574630     100.255033  -18635.956705  -11926.141966       0.620040  -28705.989945     184.358152
     77000      288.917919   92951.126280       0.620575  -29018.045020  -29912.841623     253.617178     260.991087     101.740226  -18500.493305  -11926.328925    -102.367883  -29584.463958    -417.837313
     78000      284.671666   92373.472526       0.624456  -29001.221172  -29882.866870     262.994888     292.735235     101.555967  -18607.042495  -11927.226310      -5.884155  -29038.142221     -27.406329
     79000      293.321463   92937.708792       0.620665  -28969.805959  -29878.240611     256.541967     304.233380     108.357532  -18549.313179  -11928.272229     -69.788083  -29086.753433     -86.282555
     80000      300.166394   92663.158830       0.622504  -28987.751141  -29917.384964     238.020937     285.398194     109.458596  -18547.718902  -11928.259823     -74.283966  -29492.477838    -373.485106
     81000      307.892366   92381.795834       0.624400  -28934.789943  -29888.351579     257.443924     305.938627     112.172101  -18584.469887  -11927.586485     -51.849859  -28743.784096     141.770011
     82000      275.390534   93047.711907       0.619931  -28999.773107  -29852.674568     256.655053     305.685898     110.163456  -18511.366448  -11923.519235     -90.293292  -29546.249372    -402.707499
     83000      293.652523   92868.714186       0.621126  -28982.398917  -29891.858881     248.354198     303.535076      91.325648  -18530.569930  -11925.751893     -78.751980  -29191.547804    -154.422378
     84000      300.940149   92527.267754       0.623418  -28951.395631  -29883.425824     250.849427     296.100601     109.485732  -18573.447853  -11929.777103     -36.636629  -28880.494999      52.541743
     85000      281.578688   92306.779245       0.624907  -29034.611497  -29906.678051     256.450507     292.213842     109.636701  -18537.785930  -11926.462109    -100.731061  -29451.074632    -309.362078
     86000      291.651599   93094.159547       0.619622  -28966.593210  -29869.856191     248.624091     308.443406     119.004754  -18615.148450  -11927.408751      -3.371240  -29305.728838    -249.790025
     87000      294.734411   91928.159011       0.627481  -28982.406021  -29895.216662     238.661736     309.630925     112.884501  -18573.795775  -11928.181346     -54.416703  -28888.989898      69.678275
     88000      297.576845   93567.416965       0.616488  -28950.725189  -29872.339022     250.967491     313.652018     106.037870  -18559.333825  -11925.727905     -57.934671  -28940.676703       7.363768
     89000      294.421640   92133.831338       0.626080  -29009.957573  -29921.799540     234.623378     299.795913     108.100225  -18533.443880  -11926.590266    -104.284910  -29024.580824     -10.883007
     90000      284.199062   93991.729121       0.613705  -29006.868968  -29887.050980     232.985395     293.815118     103.086849  -18448.777255  -11927.715537    -140.445550  -29503.268336    -362.130989
     91000      296.498572   92861.811808       0.621172  -28961.887595  -29880.161951     238.778421     312.419637     120.957771  -18576.239240  -11932.452752     -43.625788  -28425.171638     396.306746
     92000      298.406771   92330.021071       0.624750  -28975.455492  -29899.639656     264.294596     299.468288     102.234042  -18521.749825  -11928.576933    -115.309824  -29261.205014    -212.210412
     93000      306.255567   93014.013584       0.620156  -28950.717817  -29899.210186     249.513419     301.476356     108.360001  -18563.443102  -11928.957916     -66.158943  -29268.998504    -234.631335
     94000      306.379313   92416.628693       0.624164  -28990.176976  -29939.052594     242.376895     264.139405     108.862958  -18596.617128  -11929.662856     -28.151867  -29056.596044     -49.279554
     95000      299.181373   92839.714630       0.621320  -28948.041937  -29874.625091     255.688604     298.329372     103.035831  -18554.726532  -11928.404786     -48.547581  -28972.579185     -18.122419
     96000      299.925707   92632.949457       0.622707  -28956.129914  -29885.018317     240.213852     305.290677     115.439809  -18599.228023  -11926.757206     -19.977426  -29024.954856     -50.945340
     97000      307.713313   92016.240275       0.626880  -28951.902578  -29904.909677     225.315659     303.557565     103.460451  -18615.661117  -11927.436926       5.854691  -28595.327106     265.711954
     98000      302.697191   92380.824179       0.624406  -28961.981317  -29899.453178     246.254726     269.558104     101.837939  -18539.301333  -11926.357577     -51.445037  -28873.439980      65.718608
     99000      292.068080   93355.006555       0.617890  -28962.491868  -29867.044717     259.568099     277.935435     105.042891  -18549.151246  -11925.225523     -35.214373  -29122.919946    -117.832984
    100000      292.605161   92841.511854       0.621308  -29005.477930  -29911.694150     237.938369     281.400078     129.608229  -18594.204789  -11926.188695     -40.247342  -29116.157898     -81.743067
    101000      303.320057   92629.327705       0.622731  -28990.847824  -29930.248739     235.776102     262.443678     114.746908  -18588.953874  -11927.402083     -26.859470  -28998.636761      -5.765723
    102000      305.170875   93236.917011       0.618673  -28907.987525  -29853.120535     249.501608     305.485030     117.289668  -18530.095649  -11929.821876     -65.479316  -28673.548865     172.411185
    103000      288.490144   92788.994388       0.621659  -29008.979881  -29902.451641     235.146753     277.462633     105.241150  -18600.625594  -11925.025057       5.348474  -28654.583873     261.888521
    104000      299.557405   91995.291117       0.627023  -28924.526464  -29852.274212     265.922943     292.808439     108.053733  -18591.346601  -11925.791735      -1.920991  -28757.041242     124.834609
    105000      293.912541   93116.928823       0.619470  -28979.120974  -29889.386231     250.931957     286.163348     103.492788  -18605.888126  -11927.159763       3.073565  -28910.448887      50.567992
    106000      305.712172   92760.005112       0.621854  -28927.736091  -29874.545533     244.226613     297.444127     103.263084  -18497.188061  -11929.695424     -92.595872  -28777.875452     110.777339
    107000      298.325404   92960.470754       0.620513  -28977.123986  -29901.056152     234.422114     288.662239     105.503125  -18560.438225  -11927.929555     -41.275851  -28620.605024     262.971346
    108000      301.694937   93511.374333       0.616857  -28958.528252  -29892.896069     247.618041     294.194251     100.765480  -18486.092061  -11928.702020    -120.679760  -29172.527752    -156.917880
    109000      294.298090   92963.750372       0.620491  -28983.097615  -29894.556941     237.918014     280.363214     114.077095  -18495.392636  -11927.565363    -103.957265  -29681.500930    -515.129910
    110000      297.830276   92937.063300       0.620669  -28965.791840  -29888.190562     251.887831     278.011900     111.119822  -18601.117073  -11928.177983       0.084941  -28251.758425     526.809625
Loop time of 179.018 on 128 procs for 100000 steps with 1040 atoms

Performance: 48.263 ns/day, 0.497 hours/ns, 558.604 timesteps/s
99.5% CPU use with 128 MPI tasks x 1 OpenMP threads

MPI task timing breakdown:
Section |  min time  |  avg time  |  max time  |%varavg| %total
---------------------------------------------------------------
Pair    | 0.022606   | 21.075     | 123.39     | 865.2 | 11.77
Bond    | 0.0094437  | 0.56669    | 2.7811     | 129.8 |  0.32
Kspace  | 30.431     | 137.29     | 160.67     | 360.4 | 76.69
Neigh   | 4.0156     | 4.2915     | 4.4547     |   7.6 |  2.40
Comm    | 0.049485   | 1.8804     | 5.8215     | 149.9 |  1.05
Output  | 0.094219   | 0.094611   | 0.13419    |   1.1 |  0.05
Modify  | 12.667     | 12.969     | 13.49      |   6.3 |  7.24
Other   |            | 0.8461     |            |       |  0.47

Nlocal:          8.125 ave          45 max           0 min
Histogram: 96 0 0 0 4 9 2 2 6 9
Nghost:         900.18 ave        3121 max           0 min
Histogram: 64 16 0 0 16 0 0 16 0 16
Neighs:              0 ave           0 max           0 min
Histogram: 128 0 0 0 0 0 0 0 0 0

Total # of neighbors = 0
Ave neighs/atom = 0
Ave special neighs/atom = 6.8923077
Neighbor list builds = 2775
Dangerous builds = 0
PPPM initialization ...
  using 12-bit tables for long-range coulomb (src/src/kspace.cpp:342)
  G vector (1/distance) = 0.16057498
  grid = 8 30 8
  stencil order = 5
  estimated absolute RMS force accuracy = 0.029639027
  estimated relative force accuracy = 8.925705e-05
  using double precision FFTW3
  3d grid and FFT values/proc = 504 16
Generated 0 of 78 mixed pair_coeff terms from arithmetic mixing rule
Setting up Verlet run ...
  Unit style    : real
  Current step  : 110000
  Time step     : 1
Per MPI rank memory allocation (min/avg/max) = 19.58 | 19.73 | 20.16 Mbytes
   Step          Temp          Volume        Density         TotEng         PotEng         E_bond        E_angle        E_dihed         E_coul         E_long         E_vdwl        Enthalpy        Press     
    110000      297.830276   92937.063300       0.620669  -28965.805996  -29888.204719     251.887831     278.011900     111.119822  -18603.604347  -11925.704865       0.084941  -28251.829449     526.767669
    111000      287.690131   92937.063300       0.620669  -29037.578526  -29928.572595     238.511352     260.500383     100.432848  -18482.567175  -11924.606207    -120.843797  -29165.549302     -94.416081
    112000      289.866881   92937.063300       0.620669  -28990.258309  -29887.993906     250.353588     286.830222      97.629228  -18501.494028  -11922.878296     -98.434620  -29004.550361     -10.544591
    113000      296.145725   92937.063300       0.620669  -28947.371008  -29864.552572     270.269727     305.840020      98.188355  -18544.774577  -11925.131534     -68.944563  -29079.285389     -97.325649
    114000      300.850143   92937.063300       0.620669  -28963.112689  -29894.864127     246.841240     277.817664     117.468136  -18534.356975  -11926.183609     -76.450582  -28941.219998      16.152298
    115000      287.376415   92937.063300       0.620669  -29029.873690  -29919.896162     225.314727     289.367665     113.418065  -18599.836983  -11923.331655     -24.827982  -29160.102374     -96.081952
    116000      298.032709   92937.063300       0.620669  -28962.967478  -29885.993149     239.801312     285.698946     119.660533  -18513.522228  -11925.811807     -91.819904  -28713.317502     184.190275
    117000      307.771771   92937.063300       0.620669  -28912.673945  -29865.862091     250.218702     296.791217     110.801919  -18566.397644  -11924.656242     -32.620043  -28284.581193     463.403113
    118000      292.819941   92937.063300       0.620669  -29032.470300  -29939.351707     239.995024     275.924416      98.739221  -18519.060120  -11924.433739    -110.516508  -29405.395432    -275.141955
    119000      305.582826   92937.063300       0.620669  -28952.828322  -29899.237171     224.495470     300.153375     107.893006  -18528.843752  -11924.897607     -78.037663  -29086.708914     -98.776308
    120000      296.484337   92937.063300       0.620669  -28944.121212  -29862.351478     244.566985     299.955060     113.232486  -18494.419975  -11926.587030     -99.099005  -28919.955231      17.829517
    121000      292.828480   92937.063300       0.620669  -28995.913180  -29902.821034     234.792777     298.284308     100.991227  -18569.492284  -11925.664676     -41.732386  -28568.970720     314.995619
    122000      297.871822   92937.063300       0.620669  -28941.697988  -29864.225382     251.580529     290.595399     112.949437  -18568.456036  -11924.678879     -26.215832  -28743.290686     146.383732
    123000      294.442072   92937.063300       0.620669  -28978.731202  -29890.636450     249.679789     289.024417     116.218871  -18495.811129  -11924.630393    -125.118004  -29532.579764    -408.626190
    124000      294.299759   92937.063300       0.620669  -28973.905838  -29885.370333     235.537911     283.552581     124.866543  -18581.934325  -11925.882087     -21.510955  -28793.530420     133.079915
    125000      299.580667   92937.063300       0.620669  -28948.310042  -29876.129836     263.036548     291.415764     104.441263  -18578.634079  -11921.831219     -34.558113  -29007.147411     -43.409862
    126000      298.531977   92937.063300       0.620669  -28927.996335  -29852.568269     257.908217     307.212658     113.136331  -18497.079025  -11922.538332    -111.208120  -29215.520076    -212.133314
    127000      292.083197   92937.063300       0.620669  -28972.433550  -29877.033217     256.152207     292.847082     107.066973  -18520.394611  -11924.248302     -88.456566  -29220.114115    -182.737255
    128000      317.952386   92937.063300       0.620669  -28914.042488  -29898.760628     242.481409     288.853356     108.965856  -18528.759272  -11926.522496     -83.779481  -28874.227546      29.375229
    129000      289.539362   92937.063300       0.620669  -28977.936169  -29874.657421     248.438754     309.225619     106.626097  -18622.426087  -11923.057471       6.535667  -28615.075858     267.716189
    130000      313.203510   92937.063300       0.620669  -28874.589668  -29844.600244     281.188940     295.606958     111.194866  -18470.745883  -11925.224218    -136.620907  -28599.673445     202.831561
    131000      292.820106   92937.063300       0.620669  -28974.896953  -29881.778870     259.528438     282.515262     107.375345  -18540.152357  -11924.314366     -66.731191  -29317.860388    -253.036391
    132000      296.706240   92937.063300       0.620669  -29010.026331  -29928.943845     245.131543     293.216369      89.653957  -18644.408401  -11924.532566      11.995252  -28470.455139     398.092431
    133000      299.667193   92937.063300       0.620669  -28972.566765  -29900.654533     245.889825     288.595766     114.341026  -18565.959536  -11925.601028     -57.920586  -28798.295206     128.576524
    134000      308.874248   92937.063300       0.620669  -28911.920512  -29868.523098     258.520222     299.950690     119.619553  -18497.875602  -11928.275982    -120.461979  -29696.354317    -578.750616
    135000      302.486063   92937.063300       0.620669  -28972.316256  -29909.134238     256.589296     268.055743     121.878553  -18562.652574  -11924.498351     -68.506905  -28805.981681     122.720664
    136000      305.337307   92937.063300       0.620669  -28952.706398  -29898.354860     255.623427     278.041041     114.840895  -18585.618498  -11924.417670     -36.824055  -29090.715375    -101.822207
    137000      296.840937   92937.063300       0.620669  -28972.362731  -29891.697410     256.726075     282.094251     102.303724  -18585.705540  -11922.682942     -24.432977  -28700.255185     200.759336
    138000      298.290363   92937.063300       0.620669  -28959.320112  -29883.143752     248.990977     286.161855     121.255610  -18463.320920  -11927.727466    -148.503808  -29487.309682    -389.547579
    139000      316.156307   92937.063300       0.620669  -28950.108377  -29929.263950     246.124230     294.990859     101.012707  -18564.010157  -11922.292700     -85.088887  -29207.411706    -189.836872
    140000      300.731814   92937.063300       0.620669  -28983.677594  -29915.062561     249.095687     281.663850     108.809635  -18577.299880  -11924.827709     -52.504143  -29117.216869     -98.524486
    141000      285.764230   92937.063300       0.620669  -28955.310885  -29840.340322     269.828731     319.956818     111.019927  -18530.366250  -11923.817081     -86.962467  -29210.538428    -188.305370
    142000      303.087131   92937.063300       0.620669  -28975.465991  -29914.145517     229.915629     292.197679      98.517506  -18507.987757  -11925.366831    -101.421743  -28475.014615     369.230062
    143000      293.377719   92937.063300       0.620669  -28929.606385  -29838.215264     261.541731     302.407870     116.471069  -18557.860257  -11921.051564     -39.724113  -28657.324083     200.888269
    144000      287.929440   92937.063300       0.620669  -28988.969963  -29880.705187     252.086248     307.012176     105.560307  -18569.854008  -11923.870955     -51.638954  -29052.389747     -46.790741
    145000      309.594921   92937.063300       0.620669  -28877.807981  -29836.642534     271.404782     315.115599     126.836271  -18545.737520  -11926.082695     -78.178971  -29060.820614    -135.025638
    146000      294.913671   92937.063300       0.620669  -28969.167762  -29882.533580     265.192762     268.608814     102.237810  -18531.100472  -11925.516803     -61.955690  -28842.594015      93.385361
    147000      302.579329   92937.063300       0.620669  -28968.512224  -29905.619056     240.265854     283.601084      99.133406  -18542.211667  -11926.521570     -59.886164  -28843.716646      92.073438
    148000      288.959619   92937.063300       0.620669  -29030.860884  -29925.786637     241.237288     276.488486     111.253958  -18520.180665  -11925.968037    -108.617668  -29226.852873    -144.601729
    149000      286.774330   92937.063300       0.620669  -28955.538448  -29843.696226     260.151215     312.366465     104.870714  -18580.079336  -11921.020705     -19.984580  -29176.198402    -162.801608
    150000      288.794801   92937.063300       0.620669  -29006.193535  -29900.608836     235.369498     287.637654     115.669061  -18506.829609  -11924.802969    -107.652470  -28980.308584      19.097764
    151000      295.536167   92937.063300       0.620669  -28942.990912  -29858.284640     245.812757     306.217377     113.476137  -18578.174274  -11925.099387     -20.517248  -29045.869854     -75.903474
    152000      294.531139   92937.063300       0.620669  -28988.479349  -29900.660442     240.329148     301.599107     101.483279  -18570.573496  -11924.283820     -49.214660  -28996.731244      -6.088199
    153000      293.965477   92937.063300       0.620669  -28990.650639  -29901.079843     251.739132     290.219356     120.125142  -18542.875269  -11927.890837     -92.397367  -29276.795809    -211.116212
    154000      305.475996   92937.063300       0.620669  -28973.977842  -29920.055832     255.945243     276.255884     106.224627  -18581.345473  -11924.622250     -52.513863  -28771.910171     149.084331
    155000      293.789701   92937.063300       0.620669  -28993.476292  -29903.361106     245.143775     271.833031     122.009708  -18533.103958  -11927.921780     -81.321881  -28757.135421     174.370895
    156000      319.692877   92937.063300       0.620669  -28861.809970  -29851.918517     264.963164     299.932464     112.255113  -18506.025277  -11924.354758     -98.689223  -28990.065074     -94.625856
    157000      293.844094   92937.063300       0.620669  -28974.491892  -29884.545164     259.693124     301.775686     110.980557  -18519.992380  -11920.472126    -116.530025  -28996.074713     -15.923678
    158000      317.207016   92937.063300       0.620669  -28925.615261  -29908.024943     248.061089     299.232407      97.185358  -18603.463591  -11926.196374     -22.843832  -28456.352562     346.219241
    159000      294.597042   92937.063300       0.620669  -28986.943219  -29899.328417     275.112247     283.418226     101.005551  -18525.776024  -11926.199360    -106.889056  -29664.530932    -499.920203
    160000      307.527116   92937.063300       0.620669  -28913.266509  -29865.696945     268.714979     307.618988     107.922773  -18578.366599  -11925.085075     -46.502011  -28977.261599     -47.215199
    161000      293.282620   92937.063300       0.620669  -29000.680108  -29908.994461     242.460251     298.007209     103.162231  -18569.921285  -11925.337799     -57.365068  -28880.827651      88.426433
    162000      300.134505   92937.063300       0.620669  -28951.852686  -29881.387748     271.453795     284.160908     100.590879  -18599.123653  -11924.428102     -14.041575  -29086.488258     -99.333328
    163000      297.629037   92937.063300       0.620669  -28922.434245  -29844.209718     263.649576     305.724397     114.628364  -18539.799783  -11925.182280     -63.229991  -28852.633645      51.498469
    164000      301.836978   92937.063300       0.620669  -28955.629181  -29890.436907     246.903938     302.995235     122.492123  -18537.174272  -11925.306086    -100.347844  -29076.713237     -89.335099
    165000      293.754333   92937.063300       0.620669  -28975.783552  -29885.558829     252.848688     295.104897     112.930428  -18548.055556  -11923.474049     -74.913237  -29106.100177     -96.146834
    166000      297.799032   92937.063300       0.620669  -28945.687878  -29867.989838     266.415105     303.922115     104.888400  -18573.127196  -11925.396632     -44.691630  -28603.452469     252.499259
    167000      309.421639   92937.063300       0.620669  -28928.143129  -29886.441019     231.712376     305.659671      99.151462  -18560.593006  -11922.643849     -39.727673  -28737.183739     140.888707
    168000      298.427759   92937.063300       0.620669  -28936.845392  -29861.094558     254.096731     312.085332     105.335063  -18537.472796  -11924.171709     -70.967179  -28803.993061      98.017663
    169000      289.044913   92937.063300       0.620669  -29006.708910  -29901.898823     252.263731     277.122877     108.604976  -18566.207324  -11923.846660     -49.836422  -28934.111946      53.561610
    170000      290.965965   92937.063300       0.620669  -28980.970679  -29882.110207     273.375083     292.337508     106.706254  -18543.200126  -11925.360226     -85.968700  -29308.599339    -241.722485
    171000      307.576165   92937.063300       0.620669  -28945.078253  -29897.660596     263.674706     280.520951      92.810763  -18515.064358  -11926.831305     -92.771354  -28992.385102     -34.902712
    172000      290.090845   92937.063300       0.620669  -28952.860659  -29851.289887     279.279892     304.969229     101.668914  -18586.155517  -11923.347278     -27.705126  -28494.873281     337.900375
    173000      281.715558   92937.063300       0.620669  -29023.313331  -29895.803780     247.256485     305.922408     111.257401  -18558.830218  -11923.625949     -77.783907  -29068.537634     -33.366223
    174000      308.833484   92937.063300       0.620669  -28943.687030  -29900.163368     247.902977     278.740778     113.955441  -18571.324569  -11927.082073     -42.355923  -28664.716576     205.822749
    175000      295.861971   92937.063300       0.620669  -28932.202901  -29848.505663     286.179547     288.608977     100.743279  -18489.126642  -11927.015479    -107.895345  -29353.570974    -310.882870
    176000      284.235411   92937.063300       0.620669  -29020.203059  -29900.497649     255.480427     292.932809      99.509830  -18530.388451  -11925.362464     -92.669801  -29000.267103      14.708630
    177000      302.845254   92937.063300       0.620669  -29008.930782  -29946.861202     232.973033     279.857568     103.535567  -18553.207433  -11925.292682     -84.727256  -28780.045826     168.869965
    178000      307.008795   92937.063300       0.620669  -28939.414280  -29890.239443     248.698052     298.763889     103.097907  -18544.327865  -11924.648407     -71.823019  -29088.169749    -109.750904
    179000      285.427461   92937.063300       0.620669  -28961.993646  -29845.980086     283.865367     304.120978     112.862917  -18526.985077  -11928.176450     -91.667821  -28808.052011     113.577226
    180000      293.984382   92937.063300       0.620669  -28970.592599  -29881.080351     254.848467     289.434859     106.175626  -18533.871691  -11921.695371     -75.972241  -29040.427662     -51.523896
    181000      307.482177   92937.063300       0.620669  -28954.138662  -29906.429919     226.202552     288.637594     122.503454  -18538.293923  -11925.895173     -79.584424  -28974.081838     -14.713958
    182000      302.057586   92937.063300       0.620669  -28956.749788  -29892.240752     244.749154     298.220739     109.556176  -18572.818022  -11926.393654     -45.555145  -29049.145393     -68.168930
    183000      295.503089   92937.063300       0.620669  -28956.492662  -29871.683944     259.390562     279.262512     114.929931  -18555.570665  -11923.779987     -45.916298  -28834.249182      90.190516
    184000      289.424058   92937.063300       0.620669  -29032.198920  -29928.563069     244.154369     265.173543     104.118301  -18575.084612  -11922.223834     -44.700836  -28979.380025      38.969468
    185000      309.820683   92937.063300       0.620669  -28910.768870  -29870.302621     259.975521     277.698521     100.866580  -18503.135682  -11923.654302     -82.053259  -29472.431857    -414.391626
    186000      302.950900   92937.063300       0.620669  -28942.276421  -29880.534033     241.823816     301.654854     100.957220  -18552.525814  -11925.334843     -47.109266  -28420.548811     384.927541
    187000      294.834200   92937.063300       0.620669  -28965.500995  -29878.620686     256.931952     296.113457     103.084506  -18546.748616  -11925.245050     -62.756935  -29174.820546    -154.434725
    188000      295.905015   92937.063300       0.620669  -28962.007055  -29878.443128     257.265105     300.538250     108.989704  -18515.351726  -11923.179287    -106.705174  -29421.543525    -339.043286
    189000      298.491875   92937.063300       0.620669  -28948.593045  -29873.040782     241.397962     301.253757     111.000233  -18554.487435  -11923.071689     -49.133610  -28763.971890     136.212395
    190000      300.965434   92937.063300       0.620669  -28919.560610  -29851.669113     251.771867     292.405837     114.740120  -18555.113565  -11924.565899     -30.907472  -28866.152605      39.404110
    191000      292.050203   92937.063300       0.620669  -29011.915321  -29916.412801     231.736546     277.726530     117.612795  -18584.129346  -11923.776166     -35.583160  -29229.848601    -160.789884
    192000      305.492076   92937.063300       0.620669  -28937.629948  -29883.757737     255.230819     293.649709     106.480722  -18546.371562  -11924.184021     -68.563404  -28885.857883      38.197123
    193000      276.543534   92937.063300       0.620669  -28993.321299  -29849.793672     260.236412     294.604209     123.418176  -18479.823389  -11922.630075    -125.599005  -29315.536603    -237.728543
    194000      299.795641   92937.063300       0.620669  -28964.286512  -29892.772091     232.441563     292.728356     120.762655  -18560.645411  -11921.562616     -56.496639  -28627.540027     248.449562
    195000      293.982708   92937.063300       0.620669  -28974.031042  -29884.513608     239.589434     284.308263     123.458778  -18577.442776  -11921.459978     -32.967330  -28809.517356     121.377223
    196000      302.837488   92937.063300       0.620669  -28941.923757  -29879.830125     262.454855     298.861583     105.287190  -18535.202878  -11925.046891     -86.183985  -29000.268326     -43.046277
    197000      292.851688   92937.063300       0.620669  -28955.279506  -29862.259236     239.861087     299.350423     109.262078  -18520.432843  -11922.605402     -67.694579  -28991.977959     -27.075901
    198000      293.507919   92937.063300       0.620669  -28982.480898  -29891.493015     244.208516     289.457028     101.531010  -18520.116540  -11922.253636     -84.319393  -29045.816834     -46.728878
    199000      309.336029   92937.063300       0.620669  -28893.332241  -29851.364991     249.912557     310.069093     117.392428  -18545.480523  -11925.077427     -58.181119  -28904.380848      -8.151596
    200000      297.105124   92937.063300       0.620669  -28965.127069  -29885.279951     241.517093     279.756245     111.460703  -18549.530283  -11921.712156     -46.771554  -29086.582257     -89.608919
    201000      294.686805   92937.063300       0.620669  -28995.056673  -29907.719873     249.708690     283.374894     106.436267  -18525.401949  -11925.336762     -96.501012  -29529.419225    -394.249526
    202000      303.676960   92937.063300       0.620669  -28904.918595  -29845.424858     259.755390     293.484185     107.595658  -18519.627855  -11925.683278     -60.948958  -28478.687386     314.470862
    203000      294.560871   92937.063300       0.620669  -28996.179544  -29908.452719     253.935057     281.965723      99.077013  -18581.312994  -11923.672835     -38.444682  -29295.614268    -220.921166
    204000      290.371306   92937.063300       0.620669  -28967.994190  -29867.292024     280.926448     281.263842     107.590411  -18530.021161  -11923.978111     -83.073453  -29820.289765    -628.818629
    205000      296.246182   92937.063300       0.620669  -28920.229855  -29837.722542     243.309959     311.158431     138.821481  -18573.290272  -11923.940458     -33.781683  -28624.543641     218.155538
    206000      293.094724   92937.063300       0.620669  -28987.186637  -29894.919063     232.827296     302.240408     106.030835  -18590.503532  -11922.380258     -23.133813  -29057.181696     -51.641940
    207000      308.546052   92937.063300       0.620669  -28913.439486  -29869.025628     252.326842     289.569110     111.906318  -18477.167380  -11921.565890    -124.094628  -29772.002461    -633.442679
    208000      295.099062   92937.063300       0.620669  -28982.006650  -29895.946634     250.108728     275.245593      98.835364  -18509.843603  -11925.542762     -84.749955  -29032.287793     -37.097130
    209000      298.038477   92937.063300       0.620669  -28979.118603  -29902.162138     247.100860     274.304167     105.240507  -18563.773805  -11927.315670     -37.718196  -28726.049237     186.713080
    210000      305.143668   92937.063300       0.620669  -28959.376211  -29904.424960     258.297530     274.080483     118.375963  -18530.852755  -11924.670127     -99.656055  -29247.440636    -212.532227
Loop time of 168.967 on 128 procs for 100000 steps with 1040 atoms

Performance: 51.134 ns/day, 0.469 hours/ns, 591.831 timesteps/s
99.6% CPU use with 128 MPI tasks x 1 OpenMP threads

MPI task timing breakdown:
Section |  min time  |  avg time  |  max time  |%varavg| %total
---------------------------------------------------------------
Pair    | 0.021179   | 21.141     | 121.98     | 870.2 | 12.51
Bond    | 0.0091029  | 0.56477    | 2.8395     | 129.7 |  0.33
Kspace  | 26.376     | 131.91     | 155.3      | 370.2 | 78.07
Neigh   | 3.6333     | 3.8861     | 4.0474     |   7.6 |  2.30
Comm    | 0.044705   | 1.8476     | 5.7229     | 151.1 |  1.09
Output  | 0.19956    | 0.19982    | 0.22498    |   0.5 |  0.12
Modify  | 8.7756     | 8.8601     | 8.9426     |   1.3 |  5.24
Other   |            | 0.5546     |            |       |  0.33

Nlocal:          8.125 ave          42 max           0 min
Histogram: 96 0 0 0 1 8 4 2 5 12
Nghost:        903.398 ave        3127 max           0 min
Histogram: 64 16 0 0 16 0 0 16 0 16
Neighs:              0 ave           0 max           0 min
Histogram: 128 0 0 0 0 0 0 0 0 0

Total # of neighbors = 0
Ave neighs/atom = 0
Ave special neighs/atom = 6.8923077
Neighbor list builds = 2485
Dangerous builds = 0
System init for write_restart ...
PPPM initialization ...
  using 12-bit tables for long-range coulomb (src/src/kspace.cpp:342)
  G vector (1/distance) = 0.16057498
  grid = 8 30 8
  stencil order = 5
  estimated absolute RMS force accuracy = 0.029639027
  estimated relative force accuracy = 8.925705e-05
  using double precision FFTW3
  3d grid and FFT values/proc = 504 16
Generated 0 of 78 mixed pair_coeff terms from arithmetic mixing rule
System init for write_data ...
PPPM initialization ...
  using 12-bit tables for long-range coulomb (src/src/kspace.cpp:342)
  G vector (1/distance) = 0.16057498
  grid = 8 30 8
  stencil order = 5
  estimated absolute RMS force accuracy = 0.029639027
  estimated relative force accuracy = 8.925705e-05
  using double precision FFTW3
  3d grid and FFT values/proc = 504 16
Generated 0 of 78 mixed pair_coeff terms from arithmetic mixing rule
Total wall time: 0:06:06
