8
Coordinates from ORCA-job orca Relaxed Surface Scan Step 1 E -576.521981376086
  C       0.711922      0.087908      0.047735
  Cl      1.535835     -0.073975      1.525896
  H       1.428320      0.179214     -0.764633
  H       0.083647      0.974455      0.071429
  H       0.086392     -0.784539     -0.122448
  O       3.945212      0.427442     -0.697164
  H       3.668859      0.269853      0.213790
  H       4.788904     -0.024378     -0.786925
>
8
Coordinates from ORCA-job orca Relaxed Surface Scan Step 2 E -576.505804899345
  C       0.724580      0.082698      0.089830
  Cl      1.490544     -0.069232      1.475906
  H       1.415739      0.175241     -0.748531
  H       0.083260      0.964981      0.071279
  H       0.083359     -0.774850     -0.119221
  O       3.959451      0.428836     -0.699761
  H       3.689466      0.271272      0.212668
  H       4.802691     -0.022965     -0.794490
>
8
Coordinates from ORCA-job orca Relaxed Surface Scan Step 3 E -576.467801396158
  C       0.737620      0.077666      0.127612
  Cl      1.471930     -0.062709      1.407014
  H       1.384492      0.170618     -0.752074
  H       0.082538      0.955895      0.077801
  H       0.076490     -0.765564     -0.106929
  O       3.971987      0.429630     -0.693016
  H       3.709237      0.272039      0.221420
  H       4.814797     -0.021594     -0.794147
>
8
Coordinates from ORCA-job orca Relaxed Surface Scan Step 4 E -576.393642274159
  C       0.752197      0.072443      0.166534
  Cl      1.447238     -0.056526      1.343252
  H       1.356197      0.165713     -0.752416
  H       0.081222      0.946633      0.081551
  H       0.069523     -0.755978     -0.097241
  O       3.984105      0.430789     -0.686710
  H       3.732976      0.273371      0.230795
  H       4.825632     -0.020464     -0.798085
>
8
Coordinates from ORCA-job orca Relaxed Surface Scan Step 5 E -576.259803534729
  C       0.781314      0.063146      0.200831
  Cl      1.414732     -0.050605      1.288314
  H       1.359251      0.166936     -0.746791
  H       0.083745      0.926631      0.067984
  H       0.088820     -0.757733     -0.110590
  O       3.993302      0.487565     -0.641126
  H       3.806411      0.320687      0.289511
  H       4.721517     -0.100648     -0.860452
>
8
Coordinates from ORCA-job orca Relaxed Surface Scan Step 6 E -576.027041051035
  C       0.806841      0.060360      0.236499
  Cl      1.387166     -0.020573      1.231310
  H       1.349150      0.157694     -0.751890
  H       0.078596      0.911838      0.042407
  H       0.099240     -0.761886     -0.106155
  O       3.992272      0.515601     -0.587846
  H       3.896042      0.303902      0.346854
  H       4.639784     -0.110955     -0.923499
>
8
Coordinates from ORCA-job orca Relaxed Surface Scan Step 7 E -575.629942728911
  C       0.790521      0.077833      0.273269
  Cl      1.228642      0.110782      1.221921
  H       1.401029      0.052080     -0.714100
  H       0.072848      0.897707     -0.147693
  H       0.082963     -0.776577     -0.095157
  O       3.845123      0.308656     -0.312783
  H       4.498346      0.239726      0.389431
  H       4.329619      0.145772     -1.127208
>
8
Coordinates from ORCA-job orca Relaxed Surface Scan Step 8 E -574.958357656528
  C       0.844967      0.080919      0.313761
  Cl      1.233738      0.111705      1.165046
  H       1.435618      0.034001     -0.734947
  H       0.115796      0.906980     -0.182398
  H       0.099653     -0.769353     -0.115554
  O       3.803591      0.241926     -0.203110
  H       4.588811      0.270183      0.351007
  H       4.126917      0.179619     -1.106124
>
8
Coordinates from ORCA-job orca Relaxed Surface Scan Step 9 E -573.851977030476
  C       0.992010      0.104918      0.434597
  Cl      1.486528      0.175831      1.093993
  H       1.944829      0.048276     -1.426656
  H       0.262529      0.793628     -0.129566
  H       0.336351     -0.711587     -0.039418
  O       3.599724      0.332758      0.151861
  H       4.538783      0.156610      0.127995
  H       3.088336      0.155546     -0.725126
