ITEM: TIMESTEP
0
ITEM: NUMBER OF ATOMS
1072
ITEM: BOX BOUNDS pp pp pp
0.0000000000000000e+00 2.4292000000000002e+02
0.0000000000000000e+00 1.7486200000000000e+01
0.0000000000000000e+00 1.7325800000000001e+01
ITEM: ATOMS id type x y z
1 8 27.0962 7.46468 0.783072
2 8 15.8238 7.46464 0.782736
3 8 48.5559 3.09384 0.782386
4 8 37.284 3.09398 0.782762
5 2 26.63 8.40677 0.509003
6 2 16.2899 8.40686 0.509101
7 2 48.0898 4.03643 0.50875
8 2 37.7503 4.03639 0.508599
9 8 27.9825 7.42466 1.84803
10 8 14.9375 7.42527 1.84806
11 8 49.4423 3.05508 1.84795
12 8 36.3979 3.05444 1.84791
13 2 28.2056 8.33889 2.38733
14 2 14.7141 8.33997 2.3881
15 2 49.6657 3.96949 2.3878
16 2 36.1747 3.9685 2.38709
17 9 28.6069 6.23013 2.21843
18 9 14.3135 6.2304 2.21839
19 9 50.0662 1.85969 2.21828
20 9 35.7734 1.8595 2.21839
21 8 28.2915 5.07016 1.50493
22 8 14.6283 5.06985 1.50499
23 8 49.7514 0.699354 1.50541
24 8 36.089 0.699599 1.5053
25 2 28.7376 4.12364 1.78822
26 2 14.182 4.12252 1.78836
27 2 50.1974 17.2381 1.78877
28 2 35.6429 17.2391 1.78865
29 8 27.3952 5.10847 0.449035
30 8 15.5246 5.10882 0.448814
31 8 48.8549 0.737857 0.448831
32 8 36.9852 0.737638 0.449085
33 9 29.5777 6.19353 3.33019
34 9 13.3427 6.19365 3.33019
35 9 51.0371 1.82324 3.33002
36 9 34.8025 1.82324 3.33006
37 8 13.5261 1.76716 0.14158
38 8 29.3936 6.97675 4.47295
39 8 13.5263 6.97686 4.47301
40 8 29.3937 1.76727 0.141384
41 8 34.9865 6.13813 0.141502
42 8 50.8537 2.60668 4.47294
43 8 34.9865 2.60654 4.47274
44 8 50.8536 6.13794 0.141754
45 2 14.4076 1.14262 0.229317
46 2 28.5124 7.60121 4.56072
47 2 14.4079 7.6013 4.56057
48 2 28.5128 1.14271 0.229445
49 2 35.8676 5.51364 0.229339
50 2 49.9721 3.23102 4.56048
51 2 35.8675 3.23095 4.56063
52 2 49.9721 5.51359 0.229192
53 7 12.6027 1.79603 1.17715
54 7 30.3167 6.94785 5.50856
55 7 12.6032 6.94796 5.50838
56 7 30.3172 1.79614 1.17738
57 7 34.0633 6.16708 1.17741
58 7 51.7771 2.57785 5.50802
59 7 34.063 2.57778 5.50829
60 7 51.7769 6.16696 1.17713
61 2 12.7634 1.18608 2.05985
62 2 30.1564 7.55784 6.39123
63 2 12.7638 7.55789 6.39122
64 2 30.1568 1.18615 2.05978
65 2 34.2237 5.55702 2.05996
66 2 51.6166 3.18796 6.39089
67 2 34.2232 3.1879 6.39087
68 2 51.6161 5.55697 2.06
69 7 11.478 2.60762 1.08851
70 7 31.4416 6.13706 5.41985
71 7 11.4783 6.1365 5.42004
72 7 31.4418 2.60709 1.08814
73 7 32.9386 6.97779 1.08845
74 7 52.9018 1.7666 5.41961
75 7 32.9382 1.76708 5.41929
76 7 52.9014 6.97833 1.08882
77 2 10.7521 2.62002 1.89335
78 2 32.1674 6.12391 6.22473
79 2 10.7525 6.12409 6.22477
80 2 32.1678 2.62019 1.89329
81 2 32.2127 6.9911 1.89345
82 2 53.6279 1.75415 6.224
83 2 32.2121 1.75398 6.22399
84 2 53.6274 6.99091 1.8935
85 7 11.2872 3.39643 17.2876
86 7 31.6326 5.34746 4.29346
87 7 11.2875 5.34761 4.29305
88 7 31.6328 3.39653 17.2881
89 7 32.7474 7.76748 17.2881
90 7 53.0926 0.977289 4.29256
91 7 32.7473 0.977221 4.29307
92 7 53.0926 7.76739 17.2876
93 2 10.4128 4.03493 17.2141
94 2 32.5068 4.70934 4.21969
95 2 10.4131 4.70921 4.21973
96 2 32.5069 4.03477 17.2139
97 2 31.8732 8.40566 17.2141
98 2 53.9671 0.33895 4.21914
99 2 31.8731 0.339081 4.21906
100 2 53.967 8.40581 17.2142
101 8 30.7083 5.37428 3.2593
102 8 12.2118 5.37437 3.2591
103 8 52.1678 1.00408 3.25887
104 8 33.6721 1.00395 3.25895
105 2 30.8729 4.76233 2.38023
106 2 12.0471 4.76205 2.37993
107 2 52.3326 0.391567 2.37969
108 2 33.5075 0.391862 2.37998
109 5 21.4597 7.99447 0.803261
110 5 21.4604 0.754312 5.1311
111 5 42.9199 3.62363 0.801828
112 5 42.9201 5.12353 5.13271
113 5 18.355 6.0052 3.41893
114 5 24.5657 2.73636 7.74964
115 5 18.3534 2.7355 7.75138
116 5 24.5651 6.0061 3.42051
117 5 39.8145 1.63922 3.41951
118 5 39.8147 7.10875 7.75078
119 5 21.4584 3.84418 2.00543
120 5 21.461 4.90147 6.3397
121 13 21.46 6.62368 3.67664
122 13 21.4603 2.1227 8.00669
123 13 42.92 2.25452 3.67567
124 13 42.9197 6.49304 8.00801
125 12 23.8985 5.66482 0.264094
126 12 19.0223 5.66479 0.261725
127 12 45.3578 1.29461 0.263481
128 12 40.4817 1.29469 0.262867
129 4 22.8808 5.79915 0.351897
130 4 20.0405 5.79989 0.348532
131 4 44.3398 1.42996 0.350656
132 4 41.4993 1.42952 0.350953
133 4 24.2845 5.78207 1.26817
134 4 18.635 5.78214 1.26672
135 4 45.7456 1.41262 1.26803
136 4 40.0954 1.41263 1.26669
137 6 26.7999 6.30713 0.06415
138 6 16.1206 6.30715 0.0632155
139 6 48.2592 1.93681 0.0634382
140 6 37.5802 1.93678 0.0641232
141 2 27.1449 4.19275 17.2452
142 2 15.7753 4.19307 17.245
143 2 48.6042 17.3085 17.2453
144 2 37.2357 17.3081 17.2454
145 9 13.3425 2.55033 16.3248
146 9 29.5778 2.55038 16.3248
147 9 34.8023 6.92121 16.3247
148 9 51.0373 6.92128 16.3247
149 8 12.2117 3.36972 16.2534
150 8 30.7083 3.36982 16.2535
151 8 33.6719 7.74057 16.2536
152 8 52.168 7.74041 16.2536
153 5 42.9216 16.9613 2.00587
154 5 46.0262 1.6393 3.41951
155 5 42.9201 9.27232 6.33845
156 5 46.0259 7.10874 7.75087
157 11 24.4086 6.64294 16.6211
158 11 18.5124 6.64447 16.6187
159 11 45.8673 2.27361 16.6196
160 11 39.9715 2.27237 16.6192
161 10 25.8508 6.34273 16.2172
162 10 17.0693 6.34314 16.2153
163 10 47.3103 1.97222 16.2154
164 10 38.5289 1.97195 16.2165
165 9 14.3132 2.51373 15.2129
166 9 28.607 2.51402 15.2129
167 9 35.773 6.88492 15.2127
168 9 50.0666 6.88469 15.2127
169 2 12.047 3.982 15.3744
170 2 30.8729 3.9817 15.3747
171 2 33.5071 8.35251 15.3746
172 2 52.333 8.35281 15.3744
173 3 24.2934 7.63903 17.0599
174 3 23.7482 6.57005 15.7456
175 3 18.6262 7.64096 17.0595
176 3 19.1703 6.57088 15.7405
177 3 45.7536 3.27036 17.0595
178 3 45.2084 2.199 15.7425
179 3 40.0869 3.26851 17.0577
180 3 40.6307 2.19924 15.7428
181 1 25.8711 5.37848 15.6979
182 1 26.1626 7.11462 15.506
183 1 16.7556 7.11566 15.5051
184 1 17.0474 5.37778 15.697
185 1 47.3319 1.00692 15.6973
186 1 47.6236 2.74473 15.5051
187 1 38.2167 2.74359 15.5054
188 1 38.5083 1.00774 15.6976
189 8 14.9376 1.31891 14.8426
190 8 14.6277 3.67421 14.4993
191 8 27.9821 1.31945 14.8426
192 8 28.2918 3.67385 14.4993
193 8 36.3977 5.69001 14.8424
194 8 36.0884 8.04472 14.4995
195 8 49.4426 5.6893 14.8425
196 8 49.7522 8.04494 14.4996
197 8 15.8236 1.27971 13.7772
198 2 14.7147 0.40429 15.383
199 2 14.1813 4.62153 14.7829
200 8 15.5237 3.63548 13.4431
201 8 27.0964 1.27961 13.7774
202 2 28.2049 0.405321 15.3822
203 8 27.3962 3.63572 13.4432
204 2 28.7381 4.62044 14.7827
205 8 37.2835 5.65038 13.7772
206 2 36.1746 4.77595 15.3817
207 2 35.6422 8.99138 14.7828
208 8 36.9843 8.00665 13.4431
209 8 48.5563 5.65051 13.7768
210 2 49.6658 4.77493 15.3825
211 8 48.8557 8.0065 13.443
212 2 50.1982 8.99243 14.7829
213 2 16.2901 0.337591 13.5036
214 6 16.1199 2.43715 13.0574
215 2 15.7741 4.55116 12.9133
216 2 26.6298 0.33754 13.5034
217 6 26.8007 2.43696 13.058
218 2 27.146 4.55137 12.9133
219 2 37.7499 4.708 13.503
220 6 37.5794 6.80744 13.0582
221 2 37.2347 8.92232 12.9135
222 2 48.0902 4.70792 13.5032
223 6 48.2599 6.80757 13.0577
224 2 48.6052 8.92198 12.9135
225 10 17.0686 2.40153 11.8839
226 10 25.853 2.4016 11.8841
227 10 38.528 6.77215 11.8848
228 10 47.3113 6.77225 11.8836
229 1 16.7545 1.62982 11.1728
230 11 18.5112 2.09863 12.288
231 1 17.0477 3.36737 11.3664
232 11 24.4106 2.09912 12.2853
233 1 25.8729 3.36647 11.366
234 1 26.1665 1.63088 11.1725
235 1 38.2152 6.00116 11.1733
236 11 39.9705 6.47091 12.2875
237 1 38.508 7.7365 11.3663
238 11 45.8686 6.46951 12.2872
239 1 47.3325 7.73784 11.3659
240 1 47.625 5.99997 11.1732
241 3 18.6237 1.10113 12.7266
242 3 19.1701 2.17329 11.4108
243 12 19.0221 3.07586 13.2585
244 3 24.296 1.10256 12.7234
245 3 23.7519 2.1718 11.4083
246 12 23.898 3.07563 13.2545
247 3 40.0848 5.47449 12.7257
248 3 40.6299 6.54334 11.4111
249 12 40.482 7.44813 13.257
250 3 45.7553 5.47279 12.7272
251 3 45.2101 6.5438 11.4098
252 12 45.3579 7.44796 13.2566
253 4 18.8242 4.08937 12.9043
254 4 24.0985 4.65315 17.2367
255 4 18.8213 4.65174 17.2336
256 4 24.095 4.08813 12.9024
257 4 40.2832 8.46031 12.9034
258 4 45.5585 0.281643 17.2354
259 4 40.2818 0.282607 17.2361
260 4 45.5567 8.4611 12.9033
261 4 20.0399 2.93574 13.3463
262 4 22.8808 2.93592 13.3434
263 4 41.4995 7.31036 13.3447
264 4 44.3403 7.31019 13.3445
265 4 18.6331 2.95904 14.2629
266 4 24.2847 2.95933 14.2581
267 4 40.0949 7.33131 14.2605
268 4 45.7455 7.3314 14.2616
269 8 27.0964 16.2066 0.783022
270 8 15.8236 16.2065 0.782858
271 8 48.5563 11.8357 0.782422
272 8 37.2835 11.8358 0.78281
273 2 26.6298 17.1487 0.509001
274 2 16.2901 17.1486 0.509219
275 2 48.0902 12.7783 0.508856
276 2 37.7499 12.7782 0.508673
277 8 27.9821 16.1667 1.84822
278 8 14.9376 16.1673 1.84825
279 8 49.4426 11.7969 1.84811
280 8 36.3977 11.7962 1.84807
281 2 28.2049 17.0809 2.38787
282 2 14.7147 17.0819 2.3886
283 2 49.6658 12.7113 2.38818
284 2 36.1746 12.7102 2.38739
285 9 28.607 14.9722 2.2186
286 9 14.3132 14.9725 2.21859
287 9 50.0666 10.6015 2.21836
288 9 35.773 10.6013 2.21841
289 8 28.2918 13.8123 1.50492
290 8 14.6277 13.812 1.505
291 8 49.7522 9.44127 1.50529
292 8 36.0884 9.44148 1.50512
293 2 28.7381 12.8658 1.78833
294 2 14.1813 12.8647 1.78853
295 2 50.1982 8.49377 1.78857
296 2 35.6422 8.49483 1.78844
297 8 27.3962 13.8505 0.448812
298 8 15.5237 13.8507 0.448778
299 8 48.8557 9.47971 0.448603
300 8 36.9843 9.47956 0.448778
301 9 29.5778 14.9358 3.33046
302 9 13.3425 14.9359 3.33045
303 9 51.0373 10.5649 3.33036
304 9 34.8023 10.565 3.3303
305 8 13.5263 10.5093 0.14157
306 8 29.3937 15.7189 4.47283
307 8 13.5261 15.719 4.47302
308 8 29.3936 10.5094 0.141511
309 8 34.9865 14.8797 0.141294
310 8 50.8536 11.3483 4.4732
311 8 34.9865 11.3481 4.47295
312 8 50.8537 14.8795 0.141502
313 2 14.4079 9.88489 0.229124
314 2 28.5128 16.3435 4.56089
315 2 14.4076 16.3436 4.56077
316 2 28.5124 9.88499 0.229268
317 2 35.8675 14.2552 0.229179
318 2 49.9721 11.9726 4.56064
319 2 35.8676 11.9726 4.56079
320 2 49.9721 14.2552 0.229028
321 7 12.6032 10.5382 1.17694
322 7 30.3172 15.6901 5.50883
323 7 12.6027 15.6902 5.5086
324 7 30.3167 10.5384 1.17711
325 7 34.063 14.9084 1.17684
326 7 51.7769 11.3192 5.50857
327 7 34.0633 11.3191 5.50886
328 7 51.7771 14.9083 1.17657
329 2 12.7638 9.92831 2.05977
330 2 30.1568 16.3001 6.39123
331 2 12.7634 16.3001 6.39129
332 2 30.1564 9.92835 2.05979
333 2 34.2232 14.2983 2.05942
334 2 51.6161 11.9292 6.39145
335 2 34.2237 11.9292 6.39141
336 2 51.6166 14.2982 2.05945
337 7 11.4783 11.3497 1.08859
338 7 31.4418 14.8791 5.41959
339 7 11.478 14.8786 5.41995
340 7 31.4416 11.3491 1.0884
341 7 32.9382 15.7191 1.08784
342 7 52.9014 10.5079 5.42027
343 7 32.9386 10.5084 5.4199
344 7 52.9018 15.7196 1.08816
345 2 10.7525 11.3621 1.89332
346 2 32.1678 14.866 6.22474
347 2 10.7521 14.8662 6.2248
348 2 32.1674 11.3623 1.89328
349 2 32.2121 15.7322 1.89254
350 2 53.6274 10.4953 6.22495
351 2 32.2127 10.4951 6.2249
352 2 53.6279 15.732 1.89255
353 7 11.2875 12.1386 17.2874
354 7 31.6328 14.0897 4.29374
355 7 11.2872 14.0898 4.29327
356 7 31.6326 12.1387 17.2878
357 7 32.7473 16.509 17.2874
358 7 53.0926 9.71881 4.29322
359 7 32.7474 9.71872 4.29378
360 7 53.0926 16.5089 17.2869
361 2 10.4131 12.777 17.2141
362 2 32.5069 13.4514 4.21959
363 2 10.4129 13.4513 4.21971
364 2 32.5068 12.7769 17.214
365 2 31.8731 17.1471 17.2134
366 2 53.967 9.0804 4.2199
367 2 31.8732 9.08054 4.21978
368 2 53.9671 17.1473 17.2135
369 8 30.7083 14.1164 3.25912
370 8 12.2117 14.1165 3.25909
371 8 52.168 9.7458 3.2592
372 8 33.6719 9.74563 3.25929
373 2 30.8729 13.5045 2.38035
374 2 12.047 13.5042 2.38006
375 2 52.333 9.13339 2.38002
376 2 33.5071 9.13369 2.38029
377 5 21.4604 16.7319 0.799651
378 5 21.4597 9.49173 5.13471
379 5 42.9201 12.3627 0.801258
380 5 42.9199 13.8626 5.13328
381 5 18.3534 14.7507 3.41993
382 5 24.5651 11.4801 7.75196
383 5 18.355 11.481 7.75038
384 5 24.5657 14.7498 3.41819
385 5 39.8147 10.3774 3.41933
386 5 39.8145 15.847 7.75096
387 5 21.461 12.5847 2.00825
388 5 21.4584 13.642 6.33688
389 13 21.4603 15.3635 3.67525
390 13 21.46 10.8625 8.00809
391 13 42.9197 10.9932 3.67656
392 13 42.92 15.2317 8.00712
393 12 23.898 14.4106 0.26019
394 12 19.0221 14.4103 0.264196
395 12 45.3579 10.0382 0.262269
396 12 40.482 10.0381 0.262654
397 4 22.8808 14.5503 0.349005
398 4 20.0399 14.5505 0.351961
399 4 44.3403 10.176 0.350176
400 4 41.4995 10.1758 0.350315
401 4 24.2847 14.5269 1.26378
402 4 18.6331 14.5272 1.26859
403 4 45.7455 10.1548 1.26722
404 4 40.0949 10.1549 1.26612
405 6 26.8007 15.0492 0.0636603
406 6 16.1199 15.0491 0.0630223
407 6 48.2599 10.6786 0.0633757
408 6 37.5794 10.6788 0.0638229
409 2 27.146 12.9348 17.2448
410 2 15.7741 12.935 17.2448
411 2 48.6052 8.56422 17.2449
412 2 37.2347 8.56388 17.245
413 9 13.3427 11.2925 16.3245
414 9 29.5777 11.2927 16.3245
415 9 34.8025 15.663 16.3244
416 9 51.0371 15.663 16.3244
417 8 12.2118 12.1118 16.2534
418 8 30.7083 12.1119 16.2537
419 8 33.6721 16.4822 16.2533
420 8 52.1679 16.4821 16.2532
421 5 42.9201 8.21388 2.007
422 5 46.0259 10.3775 3.41942
423 5 42.9216 0.524909 6.33732
424 5 46.0262 15.8469 7.75096
425 11 24.4106 15.3871 16.6167
426 11 18.5112 15.3876 16.6194
427 11 45.8686 11.0167 16.6186
428 11 39.9705 11.0153 16.619
429 10 25.853 15.0846 16.2156
430 10 17.0686 15.0847 16.2153
431 10 47.3113 10.714 16.215
432 10 38.528 10.7141 16.2162
433 9 14.3135 11.2558 15.2127
434 9 28.6069 11.2561 15.2128
435 9 35.7734 15.6267 15.2127
436 9 50.0662 15.6265 15.2126
437 2 12.0471 12.7242 15.3743
438 2 30.8729 12.7239 15.3746
439 2 33.5075 17.0943 15.3743
440 2 52.3326 17.0946 15.374
441 3 24.296 16.3836 17.0549
442 3 23.7519 15.3144 15.7398
443 3 18.6237 16.3851 17.058
444 3 19.1701 15.3129 15.7422
445 3 45.7553 12.0134 17.0586
446 3 45.2101 10.9424 15.7413
447 3 40.0848 12.0117 17.0572
448 3 40.6299 10.9429 15.7426
449 1 25.8729 14.1197 15.6974
450 1 26.1665 15.8553 15.504
451 1 16.7545 15.8564 15.5043
452 1 17.0477 14.1188 15.6979
453 1 47.3325 9.74836 15.6973
454 1 47.625 11.4862 15.5046
455 1 38.2152 11.485 15.5047
456 1 38.508 9.7497 15.6977
457 8 14.9375 10.0609 14.8424
458 8 14.6283 12.4164 14.4993
459 8 27.9825 10.0615 14.8424
460 8 28.2915 12.416 14.4993
461 8 36.3979 14.4318 14.8423
462 8 36.089 16.7866 14.4997
463 8 49.4423 14.4311 14.8423
464 8 49.7514 16.7869 14.4998
465 8 15.8238 10.0215 13.7771
466 2 14.7141 9.14622 15.3825
467 2 14.182 13.3637 14.7827
468 8 15.5246 12.3774 13.4432
469 8 27.0962 10.0215 13.7774
470 2 28.2056 9.1473 15.3817
471 8 27.3952 12.3777 13.4434
472 2 28.7376 13.3626 14.7826
473 8 37.2841 14.3922 13.7771
474 2 36.1747 13.5177 15.3814
475 2 35.6429 0.247061 14.783
476 8 36.9852 16.7486 13.4434
477 8 48.5559 14.3923 13.7767
478 2 49.6657 13.5167 15.3822
479 8 48.8549 16.7484 13.4432
480 2 50.1974 0.248107 14.7831
481 2 16.2899 9.07934 13.5035
482 6 16.1206 11.1791 13.0576
483 2 15.7753 13.2931 12.9135
484 2 26.63 9.07942 13.5034
485 6 26.7999 11.1791 13.0585
486 2 27.1449 13.2935 12.9137
487 2 37.7503 13.4498 13.5029
488 6 37.5802 15.5494 13.0585
489 2 37.2357 0.178085 12.914
490 2 48.0898 13.4498 13.5031
491 6 48.2592 15.5494 13.0578
492 2 48.6042 0.177755 12.9139
493 10 17.0693 11.1431 11.8839
494 10 25.8508 11.1435 11.8857
495 10 38.5289 15.5142 11.885
496 10 47.3103 15.514 11.8839
497 1 16.7556 10.3705 11.1736
498 11 18.5124 10.8417 12.2873
499 1 17.0474 12.1084 11.3656
500 11 24.4086 10.8433 12.2896
501 1 25.8711 12.1077 11.3664
502 1 26.1626 10.3716 11.1745
503 1 38.2167 14.7426 11.174
504 11 39.9715 15.2138 12.2877
505 1 38.5083 16.4785 11.3661
506 11 45.8673 15.2126 12.2881
507 1 47.3319 16.4793 11.3659
508 1 47.6236 14.7415 11.1736
509 3 18.6262 9.84523 12.7281
510 3 19.1703 10.9153 11.409
511 12 19.0223 11.8214 13.2561
512 3 24.2934 9.84717 12.7285
513 3 23.7482 10.9162 11.4142
514 12 23.8985 11.8214 13.2584
515 3 40.0869 14.2177 12.7262
516 3 40.6307 15.287 11.4113
517 12 40.4817 16.1915 13.2572
518 3 45.7536 14.2158 12.728
519 3 45.2084 15.2872 11.411
520 12 45.3578 16.1916 13.2578
521 4 18.8213 12.8345 12.9022
522 4 24.095 13.3981 17.2339
523 4 18.8242 13.3968 17.2358
524 4 24.0985 12.833 12.9052
525 4 40.2818 17.2036 12.9046
526 4 45.5567 9.0251 17.2347
527 4 40.2832 9.02589 17.2348
528 4 45.5585 17.2046 12.904
529 4 20.0405 11.6863 13.3429
530 4 22.8808 11.687 13.3462
531 4 41.4993 16.0567 13.3453
532 4 44.3398 16.0562 13.345
533 4 18.635 11.7041 14.2611
534 4 24.2845 11.7041 14.2625
535 4 40.0954 16.0736 14.261
536 4 45.7456 16.0736 14.2624
537 8 27.0962 7.46469 9.44596
538 8 15.8238 7.46466 9.44565
539 8 48.5559 3.09386 9.4453
540 8 37.2841 3.094 9.44565
541 2 26.63 8.40677 9.1719
542 2 16.2899 8.40687 9.172
543 2 48.0898 4.03644 9.17165
544 2 37.7503 4.03639 9.1715
545 8 27.9825 7.42466 10.5109
546 8 14.9375 7.42526 10.5109
547 8 49.4422 3.05507 10.5108
548 8 36.3979 3.05444 10.5108
549 2 28.2056 8.3389 11.0502
550 2 14.7141 8.33998 11.051
551 2 49.6657 3.96951 11.0507
552 2 36.1747 3.96851 11.05
553 9 28.6069 6.23013 10.8813
554 9 14.3135 6.23042 10.8813
555 9 50.0662 1.8597 10.8812
556 9 35.7734 1.8595 10.8813
557 8 28.2915 5.07017 10.1678
558 8 14.6283 5.06983 10.1679
559 8 49.7514 0.69934 10.1683
560 8 36.089 0.699606 10.1682
561 2 28.7376 4.12363 10.4511
562 2 14.182 4.12251 10.4513
563 2 50.1974 17.2381 10.4517
564 2 35.6429 17.2391 10.4516
565 8 27.3952 5.10845 9.11192
566 8 15.5246 5.10881 9.11171
567 8 48.8549 0.737849 9.11173
568 8 36.9852 0.737617 9.11197
569 9 29.5777 6.19353 11.9931
570 9 13.3427 6.19365 11.9931
571 9 51.0371 1.82324 11.9929
572 9 34.8025 1.82324 11.993
573 8 13.5261 1.76716 8.80448
574 8 29.3936 6.97676 13.1359
575 8 13.5263 6.97687 13.1359
576 8 29.3937 1.76726 8.80429
577 8 34.9866 6.13813 8.80441
578 8 50.8537 2.6067 13.1359
579 8 34.9865 2.60655 13.1357
580 8 50.8536 6.13793 8.80465
581 2 14.4076 1.14261 8.89222
582 2 28.5124 7.60122 13.2236
583 2 14.408 7.60132 13.2235
584 2 28.5128 1.1427 8.89235
585 2 35.8676 5.51363 8.89224
586 2 49.9721 3.23104 13.2234
587 2 35.8675 3.23097 13.2235
588 2 49.9721 5.51357 8.89209
589 7 12.6027 1.79603 9.84005
590 7 30.3167 6.94785 14.1715
591 7 12.6032 6.94798 14.1713
592 7 30.3172 1.79614 9.84027
593 7 34.0633 6.16707 9.84031
594 7 51.7771 2.57787 14.1709
595 7 34.063 2.57778 14.1712
596 7 51.7769 6.16696 9.84003
597 2 12.7634 1.18608 10.7228
598 2 30.1564 7.55785 15.0541
599 2 12.7638 7.5579 15.0541
600 2 30.1568 1.18614 10.7227
601 2 34.2237 5.55701 10.7229
602 2 51.6166 3.18797 15.0538
603 2 34.2232 3.18791 15.0538
604 2 51.6161 5.55697 10.7229
605 7 11.478 2.60763 9.75142
606 7 31.4416 6.13706 14.0828
607 7 11.4783 6.13649 14.0829
608 7 31.4418 2.60709 9.75106
609 7 32.9385 6.9778 9.75136
610 7 52.9018 1.7666 14.0825
611 7 32.9382 1.76709 14.0822
612 7 52.9015 6.97834 9.75173
613 2 10.7521 2.62002 10.5563
614 2 32.1675 6.12391 14.8876
615 2 10.7525 6.12409 14.8877
616 2 32.1679 2.62019 10.5562
617 2 32.2127 6.9911 10.5564
618 2 53.6279 1.75415 14.8869
619 2 32.2121 1.75398 14.8869
620 2 53.6274 6.99091 10.5564
621 7 11.2872 3.39643 8.62471
622 7 31.6326 5.34746 12.9564
623 7 11.2875 5.3476 12.9559
624 7 31.6328 3.39653 8.62518
625 7 32.7474 7.76748 8.62522
626 7 53.0926 0.977286 12.9555
627 7 32.7473 0.977214 12.956
628 7 53.0926 7.76739 8.62466
629 2 10.4128 4.03493 8.55116
630 2 32.5068 4.70933 12.8826
631 2 10.413 4.70919 12.8826
632 2 32.5069 4.03477 8.55104
633 2 31.8732 8.40567 8.55123
634 2 53.9671 0.338938 12.882
635 2 31.8731 0.339072 12.882
636 2 53.967 8.40581 8.55134
637 8 30.7083 5.37428 11.9222
638 8 12.2118 5.37435 11.922
639 8 52.1679 1.00407 11.9218
640 8 33.6721 1.00395 11.9219
641 2 30.8729 4.76231 11.0431
642 2 12.0471 4.76203 11.0428
643 2 52.3326 0.391552 11.0426
644 2 33.5075 0.391847 11.0429
645 5 21.4597 7.99447 9.46616
646 5 21.4604 0.754313 13.794
647 5 42.9199 3.62363 9.46473
648 5 42.9201 5.12353 13.7956
649 5 18.355 6.0052 12.0818
650 5 24.5657 2.73636 16.4125
651 5 18.3534 2.7355 16.4143
652 5 24.5651 6.0061 12.0834
653 5 39.8145 1.63922 12.0824
654 5 39.8147 7.10875 16.4137
655 5 21.4584 3.84418 10.6683
656 5 21.461 4.90147 15.0026
657 13 21.46 6.62368 12.3395
658 13 21.4603 2.1227 16.6696
659 13 42.92 2.25452 12.3386
660 13 42.9197 6.49305 16.6709
661 12 23.8985 5.66482 8.92699
662 12 19.0223 5.66479 8.92462
663 12 45.3578 1.29461 8.92638
664 12 40.4817 1.29469 8.92577
665 4 22.8808 5.79915 9.0148
666 4 20.0405 5.79989 9.01143
667 4 44.3398 1.42996 9.01356
668 4 41.4993 1.42952 9.01385
669 4 24.2845 5.78207 9.93106
670 4 18.635 5.78214 9.92961
671 4 45.7456 1.41262 9.93093
672 4 40.0954 1.41262 9.92959
673 6 26.7999 6.30713 8.72705
674 6 16.1206 6.30714 8.72611
675 6 48.2592 1.9368 8.72633
676 6 37.5802 1.93678 8.72702
677 2 27.1449 4.19275 8.58226
678 2 15.7753 4.19306 8.58206
679 2 48.6042 17.3084 8.58243
680 2 37.2357 17.3081 8.58254
681 9 13.3425 2.55034 7.6619
682 9 29.5778 2.55038 7.66191
683 9 34.8023 6.92121 7.66175
684 9 51.0373 6.92128 7.6618
685 8 12.2117 3.36972 7.59054
686 8 30.7083 3.36982 7.59057
687 8 33.6719 7.74057 7.59074
688 8 52.168 7.74041 7.59065
689 5 42.9216 16.9613 10.6688
690 5 46.0262 1.6393 12.0824
691 5 42.9201 9.27233 15.0013
692 5 46.0259 7.10874 16.4138
693 11 24.4086 6.64294 7.95817
694 11 18.5124 6.64447 7.95581
695 11 45.8673 2.27361 7.9567
696 11 39.9715 2.27237 7.95625
697 10 25.8508 6.34273 7.55427
698 10 17.0693 6.34314 7.55243
699 10 47.3103 1.97222 7.55249
700 10 38.5289 1.97195 7.55356
701 9 14.3132 2.51372 6.55005
702 9 28.607 2.51401 6.55004
703 9 35.773 6.88492 6.54985
704 9 50.0666 6.88469 6.54982
705 2 12.047 3.98202 6.71149
706 2 30.8729 3.98171 6.71178
707 2 33.5071 8.35252 6.71173
708 2 52.333 8.35282 6.71145
709 3 24.2934 7.63903 8.39703
710 3 23.7482 6.57005 7.08274
711 3 18.6262 7.64096 8.3966
712 3 19.1703 6.57088 7.07756
713 3 45.7536 3.27036 8.39657
714 3 45.2084 2.199 7.0796
715 3 40.0869 3.26851 8.39479
716 3 40.6307 2.19924 7.07986
717 1 25.8711 5.37848 7.03495
718 1 26.1625 7.11462 6.84309
719 1 16.7556 7.11566 6.8422
720 1 17.0474 5.37778 7.03414
721 1 47.3319 1.00692 7.03445
722 1 47.6236 2.74473 6.84219
723 1 38.2167 2.74359 6.84252
724 1 38.5083 1.00774 7.03466
725 8 14.9376 1.31892 6.17969
726 8 14.6277 3.67421 5.83645
727 8 27.9821 1.31946 6.17968
728 8 28.2918 3.67385 5.83637
729 8 36.3977 5.69002 6.17952
730 8 36.0884 8.04472 5.83657
731 8 49.4426 5.68931 6.17955
732 8 49.7522 8.04494 5.83673
733 8 15.8236 1.27973 5.11431
734 2 14.7147 0.404299 6.72006
735 2 14.1813 4.62152 6.11998
736 8 15.5237 3.63547 4.78023
737 8 27.0964 1.27961 5.11447
738 2 28.2049 0.405329 6.71932
739 8 27.3962 3.63571 4.78026
740 2 28.7381 4.62043 6.11978
741 8 37.2835 5.65037 5.11425
742 2 36.1746 4.77596 6.71884
743 2 35.6422 8.99137 6.11989
744 8 36.9843 8.00664 4.78022
745 8 48.5563 5.65052 5.11388
746 2 49.6658 4.77494 6.71963
747 8 48.8557 8.00649 4.78005
748 2 50.1982 8.99242 6.12002
749 2 16.2901 0.337591 4.84067
750 6 16.1199 2.43714 4.39447
751 2 15.7741 4.55116 4.2504
752 2 26.6298 0.337548 4.84045
753 6 26.8007 2.43696 4.39511
754 2 27.146 4.55136 4.2504
755 2 37.7499 4.70801 4.84012
756 6 37.5794 6.80745 4.39527
757 2 37.2347 8.92232 4.25065
758 2 48.0902 4.70792 4.8403
759 6 48.2599 6.80756 4.39483
760 2 48.6052 8.92198 4.25056
761 10 17.0686 2.40153 3.22098
762 10 25.853 2.4016 3.2212
763 10 38.528 6.77214 3.22187
764 10 47.3113 6.77225 3.22068
765 1 16.7545 1.62983 2.50992
766 11 18.5112 2.09864 3.62506
767 1 17.0477 3.36736 2.70353
768 11 24.4106 2.09912 3.62235
769 1 25.8729 3.36646 2.70306
770 1 26.1665 1.63089 2.5096
771 1 38.2152 6.00116 2.51039
772 11 39.9705 6.47091 3.62464
773 1 38.508 7.7365 2.70337
774 11 45.8686 6.46952 3.62427
775 1 47.3325 7.73783 2.70299
776 1 47.625 5.99997 2.51028
777 3 18.6237 1.10113 4.06366
778 3 19.1701 2.17329 2.74788
779 12 19.0221 3.07586 4.59565
780 3 24.296 1.10256 4.06052
781 3 23.7519 2.1718 2.74545
782 12 23.898 3.07563 4.59164
783 3 40.0848 5.47449 4.06281
784 3 40.6299 6.54334 2.74822
785 12 40.482 7.44813 4.5941
786 3 45.7553 5.47279 4.06429
787 3 45.2101 6.5438 2.74693
788 12 45.3579 7.44796 4.59372
789 4 18.8242 4.08936 4.24142
790 4 24.0985 4.65316 8.57376
791 4 18.8213 4.65174 8.57075
792 4 24.095 4.08813 4.2395
793 4 40.2832 8.46031 4.24048
794 4 45.5585 0.281644 8.57251
795 4 40.2818 0.282608 8.57318
796 4 45.5567 8.4611 4.24039
797 4 20.0399 2.93574 4.68341
798 4 22.8808 2.93592 4.68046
799 4 41.4995 7.31037 4.68177
800 4 44.3403 7.31019 4.68163
801 4 18.6331 2.95904 5.60003
802 4 24.2847 2.95933 5.59523
803 4 40.0949 7.33131 5.59756
804 4 45.7455 7.3314 5.59867
805 8 27.0964 16.2066 9.44591
806 8 15.8236 16.2065 9.44577
807 8 48.5563 11.8357 9.44533
808 8 37.2835 11.8358 9.4457
809 2 26.6298 17.1487 9.1719
810 2 16.2901 17.1486 9.17212
811 2 48.0902 12.7783 9.17175
812 2 37.7499 12.7782 9.17157
813 8 27.9821 16.1667 10.5111
814 8 14.9376 16.1673 10.5111
815 8 49.4426 11.7969 10.511
816 8 36.3977 11.7962 10.511
817 2 28.2049 17.0809 11.0508
818 2 14.7147 17.0819 11.0515
819 2 49.6658 12.7113 11.0511
820 2 36.1746 12.7103 11.0503
821 9 28.607 14.9722 10.8815
822 9 14.3132 14.9725 10.8815
823 9 50.0666 10.6015 10.8813
824 9 35.773 10.6013 10.8813
825 8 28.2918 13.8124 10.1678
826 8 14.6277 13.812 10.1679
827 8 49.7522 9.44125 10.1682
828 8 36.0884 9.44149 10.168
829 2 28.7381 12.8658 10.4512
830 2 14.1813 12.8647 10.4514
831 2 50.1982 8.49377 10.4515
832 2 35.6422 8.49482 10.4513
833 8 27.3962 13.8505 9.1117
834 8 15.5237 13.8507 9.11168
835 8 48.8557 9.4797 9.1115
836 8 36.9843 9.47954 9.11167
837 9 29.5778 14.9358 11.9934
838 9 13.3425 14.9359 11.9933
839 9 51.0373 10.5649 11.9932
840 9 34.8023 10.565 11.9932
841 8 13.5263 10.5093 8.80447
842 8 29.3937 15.7189 13.1357
843 8 13.5261 15.719 13.1359
844 8 29.3936 10.5094 8.80441
845 8 34.9865 14.8797 8.8042
846 8 50.8536 11.3483 13.1361
847 8 34.9865 11.3481 13.1359
848 8 50.8537 14.8795 8.8044
849 2 14.408 9.88488 8.89203
850 2 28.5128 16.3435 13.2238
851 2 14.4076 16.3436 13.2237
852 2 28.5124 9.88498 8.89217
853 2 35.8675 14.2552 8.89208
854 2 49.9721 11.9726 13.2235
855 2 35.8676 11.9726 13.2237
856 2 49.9721 14.2552 8.89193
857 7 12.6032 10.5382 9.83984
858 7 30.3172 15.6901 14.1717
859 7 12.6027 15.6902 14.1715
860 7 30.3167 10.5383 9.84001
861 7 34.063 14.9084 9.83973
862 7 51.7769 11.3192 14.1715
863 7 34.0633 11.3191 14.1718
864 7 51.7771 14.9083 9.83948
865 2 12.7638 9.9283 10.7227
866 2 30.1568 16.3001 15.0541
867 2 12.7634 16.3001 15.0542
868 2 30.1564 9.92835 10.7227
869 2 34.2232 14.2983 10.7223
870 2 51.6161 11.9292 15.0544
871 2 34.2237 11.9292 15.0543
872 2 51.6166 14.2982 10.7223
873 7 11.4783 11.3497 9.75149
874 7 31.4418 14.8791 14.0825
875 7 11.478 14.8786 14.0829
876 7 31.4416 11.3491 9.75131
877 7 32.9382 15.7191 9.75075
878 7 52.9015 10.5079 14.0832
879 7 32.9386 10.5084 14.0828
880 7 52.9018 15.7196 9.75107
881 2 10.7525 11.3621 10.5562
882 2 32.1679 14.866 14.8876
883 2 10.7521 14.8662 14.8877
884 2 32.1675 11.3623 10.5562
885 2 32.2121 15.7322 10.5554
886 2 53.6274 10.4953 14.8879
887 2 32.2127 10.4951 14.8878
888 2 53.6279 15.732 10.5555
889 7 11.2875 12.1386 8.6245
890 7 31.6328 14.0897 12.9566
891 7 11.2872 14.0898 12.9562
892 7 31.6326 12.1387 8.6249
893 7 32.7473 16.509 8.62451
894 7 53.0926 9.71881 12.9561
895 7 32.7474 9.71872 12.9567
896 7 53.0926 16.5089 8.62401
897 2 10.4131 12.777 8.55118
898 2 32.5069 13.4514 12.8825
899 2 10.4128 13.4513 12.8826
900 2 32.5068 12.7769 8.55114
901 2 31.8731 17.1471 8.55051
902 2 53.967 9.08039 12.8828
903 2 31.8732 9.08053 12.8827
904 2 53.9671 17.1473 8.55059
905 8 30.7083 14.1164 11.922
906 8 12.2117 14.1165 11.922
907 8 52.168 9.74578 11.9221
908 8 33.6719 9.74563 11.9222
909 2 30.8729 13.5045 11.0432
910 2 12.047 13.5042 11.0429
911 2 52.333 9.13338 11.0429
912 2 33.5071 9.13368 11.0432
913 5 21.4604 16.7319 9.46255
914 5 21.4597 9.49173 13.7976
915 5 42.9201 12.3627 9.46416
916 5 42.9199 13.8626 13.7962
917 5 18.3534 14.7507 12.0828
918 5 24.5651 11.4801 16.4149
919 5 18.355 11.481 16.4133
920 5 24.5657 14.7498 12.0811
921 5 39.8147 10.3774 12.0822
922 5 39.8145 15.847 16.4139
923 5 21.461 12.5847 10.6712
924 5 21.4584 13.642 14.9998
925 13 21.4603 15.3635 12.3381
926 13 21.46 10.8625 16.671
927 13 42.9197 10.9932 12.3395
928 13 42.92 15.2317 16.67
929 12 23.898 14.4106 8.92309
930 12 19.0221 14.4103 8.9271
931 12 45.3579 10.0382 8.92517
932 12 40.482 10.0381 8.92555
933 4 22.8808 14.5503 9.01191
934 4 20.0399 14.5505 9.01486
935 4 44.3403 10.176 9.01308
936 4 41.4995 10.1758 9.01322
937 4 24.2847 14.5269 9.92668
938 4 18.6331 14.5272 9.93149
939 4 45.7455 10.1548 9.93012
940 4 40.0949 10.1549 9.92901
941 6 26.8007 15.0492 8.72656
942 6 16.1199 15.0491 8.72592
943 6 48.2599 10.6786 8.72627
944 6 37.5794 10.6788 8.72672
945 2 27.146 12.9348 8.58185
946 2 15.7741 12.935 8.58185
947 2 48.6052 8.56421 8.582
948 2 37.2347 8.56388 8.5821
949 9 13.3427 11.2925 7.66163
950 9 29.5777 11.2927 7.66164
951 9 34.8025 15.663 7.66151
952 9 51.0371 15.663 7.66147
953 8 12.2118 12.1118 7.59055
954 8 30.7083 12.1119 7.59074
955 8 33.6721 16.4823 7.5904
956 8 52.1679 16.4821 7.59032
957 5 42.9201 8.21388 10.6699
958 5 46.0259 10.3775 12.0823
959 5 42.9216 0.524909 15.0002
960 5 46.0262 15.8469 16.4139
961 11 24.4106 15.3871 7.9538
962 11 18.5112 15.3876 7.95651
963 11 45.8686 11.0167 7.95572
964 11 39.9705 11.0153 7.95609
965 10 25.853 15.0846 7.55265
966 10 17.0686 15.0847 7.55243
967 10 47.3113 10.714 7.55213
968 10 38.528 10.7141 7.55332
969 9 14.3135 11.2558 6.54985
970 9 28.6069 11.2561 6.54987
971 9 35.7734 15.6267 6.54983
972 9 50.0662 15.6265 6.54973
973 2 12.0471 12.7242 6.71136
974 2 30.8729 12.7239 6.71166
975 2 33.5075 17.0943 6.71142
976 2 52.3326 17.0946 6.71112
977 3 24.296 16.3836 8.39197
978 3 23.7519 15.3144 7.07689
979 3 18.6237 16.3851 8.39512
980 3 19.1701 15.3129 7.07932
981 3 45.7553 12.0134 8.39574
982 3 45.2101 10.9424 7.07837
983 3 40.0848 12.0117 8.39426
984 3 40.6299 10.9429 7.07967
985 1 25.8729 14.1197 7.03451
986 1 26.1665 15.8553 6.84105
987 1 16.7545 15.8564 6.84137
988 1 17.0477 14.1188 7.03498
989 1 47.3325 9.74836 7.03444
990 1 47.625 11.4862 6.84173
991 1 38.2152 11.485 6.84184
992 1 38.508 9.7497 7.03482
993 8 14.9375 10.0609 6.1795
994 8 14.6283 12.4164 5.83644
995 8 27.9825 10.0615 6.17948
996 8 28.2915 12.416 5.83638
997 8 36.3979 14.4318 6.17937
998 8 36.089 16.7866 5.83675
999 8 49.4422 14.4311 6.17939