ITEM: TIMESTEP
10000
ITEM: NUMBER OF ATOMS
1040
ITEM: BOX BOUNDS pp pp pp
-3.1000000000000001e+00 2.1700000000000003e+01
-6.9095259441535461e+01 8.1495259441535467e+01
-3.1000000000000001e+00 2.1700000000000003e+01
ITEM: ATOMS id type x y z
1 13 0.182455 -0.347115 7.08566
2 5 3.30843 -0.382751 7.13277
3 5 0.0554167 -3.48139 7.43317
4 5 0.388669 -0.278928 10.1414
5 12 3.76968 -2.723 9.94078
6 6 3.71597 -7.87833 9.92544
7 4 3.7004 -2.86826 8.91732
8 4 4.77425 -2.82096 10.1759
9 4 3.51716 -1.73257 10.1158
10 10 2.88387 -3.69184 10.7222
11 3 3.00855 -3.48469 11.7931
12 3 1.84831 -3.45849 10.4557
13 7 4.47139 -5.65972 10.5683
14 6 4.74339 -7.01811 10.3468
15 8 3.17222 -5.16124 10.4476
16 7 2.1443 -6.02771 10.0572
17 6 2.409 -7.38073 9.78203
18 1 5.28256 -4.98274 10.8174
19 1 5.76302 -7.38043 10.4343
20 1 1.13646 -5.62952 9.94639
21 1 3.93635 -8.919 9.70686
22 1 1.60684 -8.02538 9.43825
23 13 0.230729 -0.433862 13.2347
24 5 3.43635 -0.346465 13.2917
25 5 -0.185243 -3.43905 13.1797
26 5 0.0257495 -0.359016 16.3965
27 12 3.88131 -2.59427 16.3271
28 6 3.19984 -7.17874 14.6354
29 4 3.9092 -2.66117 15.2913
30 4 4.84928 -2.77294 16.647
31 4 3.67623 -1.60694 16.5658
32 10 2.88364 -3.56973 16.9539
33 3 3.07724 -3.61446 18.0331
34 3 1.87314 -3.16739 16.8207
35 7 4.23119 -5.54405 16.1094
36 6 4.34597 -6.65941 15.2597
37 8 2.98069 -4.93472 16.3049
38 7 1.83661 -5.50332 15.7447
39 6 1.93629 -6.61201 14.8916
40 1 5.12997 -5.08209 16.5201
41 1 5.3329 -7.04748 15.018
42 1 0.884344 -5.00272 15.8806
43 1 3.28348 -7.99284 13.9224
44 1 1.05526 -6.96395 14.3589
45 13 0.291494 -0.236244 19.5481
46 5 3.45991 -0.225117 19.4469
47 5 0.269206 -3.24325 19.9423
48 5 0.569706 -0.143542 -2.15667
49 12 3.49492 -2.79203 -2.78682
50 6 4.09961 -7.7444 -1.40613
51 4 3.24005 -3.1535 21.0761
52 4 4.52512 -2.74329 -2.7567
53 4 3.15257 -1.81503 -2.76651
54 10 2.89931 -3.60715 -1.64402
55 3 3.15995 -3.11876 -0.699231
56 3 1.82031 -3.53955 -1.7761
57 7 4.65626 -5.40367 -1.70904
58 6 5.06397 -6.7415 -1.61784
59 8 3.30819 -5.06131 -1.57881
60 7 2.34858 -6.06236 -1.35748
61 6 2.73754 -7.41094 -1.28716
62 1 5.39829 -4.61504 -1.83111
63 1 6.11795 -6.99306 -1.67797
64 1 1.30752 -5.77333 -1.2234
65 1 4.41863 -8.7778 -1.31981
66 1 1.99125 -8.18241 -1.11567
67 13 0.235793 -0.115691 0.830226
68 5 3.37756 -0.150064 1.00311
69 5 0.0720002 -3.26261 0.933838
70 5 0.154362 -0.367708 4.02296
71 12 3.22363 -2.50353 3.58388
72 6 2.33471 -7.43194 2.98942
73 4 2.28875 -2.49377 3.13587
74 4 3.90947 -2.63149 2.82025
75 4 3.38756 -1.55405 3.96458
76 10 3.35993 -3.57995 4.64901
77 3 4.3869 -3.54766 5.02991
78 3 2.70679 -3.31299 5.47873
79 7 4.00954 -5.85008 3.76429
80 6 3.68027 -7.08502 3.19113
81 8 2.99867 -4.94587 4.11967
82 7 1.65818 -5.27438 3.89849
83 6 1.31864 -6.52037 3.33665
84 1 5.04964 -5.5478 3.87946
85 1 4.47082 -7.75092 2.86026
86 1 0.866136 -4.55473 4.12096
87 1 2.08406 -8.37285 2.51128
88 1 0.27076 -6.73827 3.14505
89 13 0.401741 5.84077 7.01664
90 5 3.41444 5.75954 7.2845
91 5 0.154476 2.74926 7.14928
92 5 0.455792 5.77865 10.2057
93 11 2.91105 2.38813 9.64484
94 9 3.81672 3.15556 10.6087
95 2 3.62094 4.22788 10.509
96 2 4.86788 2.9623 10.3652
97 2 3.63049 2.83757 11.6411
98 4 3.09394 2.64522 8.65411
99 4 1.90249 2.5649 9.81847
100 4 3.04343 1.36332 9.71065
101 13 0.547785 5.54555 13.1576
102 5 3.51936 5.7756 13.6469
103 5 0.369644 2.6539 13.2078
104 5 0.29997 5.69977 16.3436
105 11 4.12029 3.10515 16.904
106 9 3.05287 2.36988 16.1065
107 2 3.24979 2.53246 15.0438
108 2 2.05705 2.74956 16.356
109 2 3.10044 1.30065 16.329
110 4 4.11458 4.1233 16.7069
111 4 5.0799 2.76429 16.6968
112 4 3.98638 2.99458 17.9272
113 13 0.300955 5.73093 19.5567
114 5 3.51743 5.76327 19.3273
115 5 0.20831 2.70984 19.2944
116 5 0.393583 5.98177 -2.31397
117 11 3.90317 2.29077 -1.67417
118 9 3.10084 3.17206 -2.61288
119 2 3.26524 2.85179 21.1533
120 2 3.41731 4.21135 -2.482
121 2 2.03912 3.06579 -2.38061
122 4 4.91932 2.31114 -1.87522
123 4 3.61196 1.29768 -1.72575
124 4 3.77864 2.56995 -0.682996
125 13 0.482938 5.82113 0.786786
126 5 3.52977 5.88189 0.664913
127 5 0.581837 2.91077 0.724082
128 5 0.634686 5.8289 3.93019
129 11 3.84821 3.34083 3.45941
130 9 2.97451 2.47738 4.35469
131 2 3.12261 2.76048 5.40077
132 2 3.23677 1.42377 4.21932
133 2 1.92525 2.62938 4.08401
134 4 4.85808 3.22659 3.66226
135 4 3.63198 4.35028 3.56783
136 4 3.71852 3.1149 2.45385
137 13 0.280738 12.1456 6.97838
138 5 3.44442 11.9315 6.92582
139 5 0.343863 8.91984 7.20207
140 5 0.521717 11.9579 10.1401
141 5 0.513759 15.094 7.05247
142 11 3.02153 9.33563 9.60083
143 9 3.80976 8.57566 10.6547
144 2 4.87114 8.79803 10.5216
145 2 3.62621 7.50187 10.5369
146 2 3.51199 8.88968 11.6609
147 4 3.22111 9.00102 8.63713
148 4 3.23534 10.3488 9.60702
149 4 1.99836 9.24692 9.73419
150 12 3.36006 14.3874 9.53827
151 6 2.4689 19.2543 10.8228
152 4 3.8045 14.7243 8.66536
153 4 2.3374 14.4203 9.38948
154 4 3.61674 13.3894 9.62109
155 10 3.81864 15.17 10.7586
156 3 3.45006 14.6768 11.6641
157 3 4.91284 15.1226 10.7843
158 7 2.01146 16.8984 10.4716
159 6 1.57288 18.2291 10.4815
160 8 3.35073 16.6025 10.7543
161 7 4.24983 17.6201 11.0901
162 6 3.80498 18.9515 11.1392
163 1 1.29505 16.1006 10.2802
164 1 0.531615 18.4449 10.2526
165 1 5.2752 17.3585 11.3514
166 1 2.11794 20.2794 10.8658
167 1 4.49532 19.7362 11.4323
168 13 0.478603 11.954 13.3111
169 5 3.52527 11.8855 13.4919
170 5 0.455406 8.76692 13.3322
171 5 0.397527 11.8762 16.4736
172 5 0.482698 15.0128 13.7208
173 11 2.85939 8.31078 16.1878
174 9 3.89135 9.10628 16.9603
175 2 3.73686 8.95051 18.0305
176 2 3.74645 10.1645 16.7243
177 2 4.8993 8.78537 16.6796
178 4 1.89025 8.59004 16.4282
179 4 2.92171 7.29541 16.389
180 4 2.97167 8.41416 15.1628
181 12 3.06876 14.2869 16.226
182 6 3.75291 19.4131 16.0777
183 4 3.12602 14.4249 15.2003
184 4 2.0772 14.4426 16.4802
185 4 3.26364 13.2821 16.3939
186 10 4.01439 15.1993 16.9874
187 3 3.8832 15.021 18.0602
188 3 5.02861 14.8833 16.7277
189 7 2.62599 17.3181 16.6251
190 6 2.5618 18.687 16.3135
191 8 3.87612 16.6765 16.6746
192 7 5.04401 17.4026 16.4132
193 6 4.99778 18.7728 16.1201
194 1 1.71463 16.7502 16.8143
195 1 1.59527 19.1802 16.2599
196 1 5.99418 16.8795 16.4475
197 1 3.69804 20.4703 15.8403
198 1 5.91522 19.3149 15.9234
199 13 0.558087 11.8936 19.5799
200 5 3.5673 11.9519 19.6566
201 5 0.432271 8.79489 19.3373
202 5 0.59545 11.8933 -2.05515
203 5 0.720853 15.0164 19.7329
204 11 4.04561 9.63151 -1.74437
205 9 3.32154 8.58562 -2.5903
206 2 2.24796 8.69874 -2.42182
207 2 3.64215 7.5709 -2.32677
208 2 3.51971 8.75543 21.1483
209 4 3.80514 9.54308 -0.738485
210 4 3.79334 10.593 -2.03808
211 4 5.07557 9.55207 -1.8184
212 12 3.18601 14.3239 -1.8919
213 6 2.99217 19.4167 -1.86685
214 4 2.25916 14.4301 -2.34607
215 4 3.02958 14.4497 -0.873989
216 4 3.46868 13.3412 -2.04777
217 10 4.18316 15.3146 -2.48261
218 3 5.17686 15.152 -2.0473
219 3 4.2402 15.0914 21.2477
220 7 3.6206 17.2445 -0.964171
221 6 3.21834 18.5763 -0.758095
222 8 3.74769 16.7415 -2.26277
223 7 3.48123 17.5617 21.4334
224 6 3.12527 18.9057 21.6316
225 1 3.81564 16.5952 -0.108352
226 1 3.10084 18.9364 0.25938
227 1 3.55445 17.1375 20.4303
228 1 2.70386 20.4497 -1.7078
229 1 2.9337 19.5393 20.7707
230 13 0.332985 11.8831 0.92994
231 5 3.59335 12.0879 1.02099
232 5 0.565437 8.91138 1.01954
233 5 0.22483 11.932 4.04031
234 5 0.682258 15.1633 1.18131
235 11 4.18833 9.63939 3.87863
236 9 3.17416 8.62835 4.37448
237 2 3.20998 8.60547 5.46606
238 2 3.43246 7.64261 3.97953
239 2 2.16739 8.91342 4.05786
240 4 5.15257 9.40165 4.17595
241 4 4.00253 10.5953 4.2234
242 4 4.19617 9.69353 2.84583
243 12 3.00105 14.3226 3.97187
244 6 3.96393 19.261 3.09103
245 4 3.15392 14.3845 2.9493
246 4 1.9965 14.5381 4.11389
247 4 3.12425 13.3315 4.2328
248 10 3.91164 15.2684 4.7596
249 3 3.6382 15.2328 5.81799
250 3 4.926 14.8798 4.68752
251 7 2.72924 17.3776 4.01268
252 6 2.74004 18.658 3.43125
253 8 3.92644 16.6895 4.23409
254 7 5.14382 17.2882 3.88911
255 6 5.16321 18.5676 3.30813
256 1 1.78087 16.9007 4.24998
257 1 1.79898 19.158 3.22223
258 1 6.07254 16.7293 4.02293
259 1 3.97882 20.2395 2.62318
260 1 6.1145 18.9881 2.99635
261 13 6.36139 -0.322076 7.19084
262 5 9.47571 -0.281741 7.1776
263 5 6.54643 -3.46009 7.65709
264 5 6.50639 -0.179617 10.2659
265 12 9.85475 -2.6988 9.82012
266 6 10.2048 -7.63661 9.3461
267 4 9.4177 -2.79776 8.88386
268 4 10.8696 -2.84199 9.69488
269 4 9.70961 -1.71264 10.0994
270 10 9.24902 -3.6879 10.8063
271 3 9.56816 -3.44088 11.8223
272 3 8.16922 -3.53504 10.7523
273 7 10.9292 -5.48642 10.2202
274 6 11.2351 -6.73271 9.65638
275 8 9.59787 -5.11649 10.4524
276 7 8.57161 -6.026 10.1815
277 6 8.86967 -7.28367 9.62637
278 1 11.7245 -4.76674 10.4099
279 1 12.2703 -6.95736 9.40898
280 1 7.54104 -5.69681 10.3079
281 1 10.4412 -8.58813 8.87958
282 1 8.062 -7.95632 9.35556
283 13 6.51548 -0.220071 13.3753
284 5 9.57732 -0.364281 13.2843
285 5 6.41644 -3.4305 13.5204
286 5 6.58245 -0.266277 16.5292
287 12 9.65842 -2.73105 15.9432
288 6 10.8675 -7.56315 16.4074
289 4 9.50358 -2.94494 14.9421
290 4 10.6859 -2.74836 16.0683
291 4 9.34829 -1.752 16.0854
292 10 8.9416 -3.71963 16.8622
293 3 9.08217 -3.37733 17.8881
294 3 7.86792 -3.689 16.6436
295 7 10.0621 -5.76624 17.8463
296 6 10.7617 -6.97254 17.679
297 8 9.49224 -5.11963 16.7383
298 7 9.63136 -5.69325 15.469
299 6 10.3205 -6.89847 15.2969
300 1 10.0223 -5.28168 18.8217
301 1 11.255 -7.41923 18.5376
302 1 9.2522 -5.15607 14.6012
303 1 11.4143 -8.49174 16.2786
304 1 10.4619 -7.29389 14.2943
305 13 6.57878 -0.482114 19.5741
306 5 9.61233 -0.555253 19.5272
307 5 6.20413 -3.50077 19.6411
308 5 6.38652 -0.464421 -2.09032
309 12 10.0317 -2.68302 -2.32957
310 6 9.94653 -7.57255 21.3967
311 4 10.1176 -2.8444 21.4509
312 4 10.9903 -2.73878 -1.94069
313 4 9.71009 -1.70524 -2.19629
314 10 9.09159 -3.69388 -1.68457
315 3 9.19095 -3.61335 -0.594855
316 3 8.06509 -3.411 -1.94448
317 7 10.671 -5.6231 -2.1581
318 6 10.9714 -6.85427 -2.76809
319 8 9.3632 -5.10971 -2.15124
320 7 8.34792 -5.84518 -2.74641
321 6 8.63728 -7.06277 21.4069
322 1 11.4805 -5.00775 -1.7842
323 1 12.0054 -7.18454 -2.82712
324 1 7.35031 -5.42948 -2.7892
325 1 10.168 -8.48628 20.8553
326 1 7.8393 -7.58378 20.8836
327 13 6.48819 -0.50537 0.993545
328 5 9.53166 -0.286079 0.614633
329 5 6.36158 -3.50079 1.32904
330 5 6.44074 -0.54597 4.07932
331 12 9.71993 -2.79969 3.4925
332 6 10.0785 -7.89286 4.20744
333 4 9.34274 -3.07044 2.56547
334 4 10.7477 -2.86538 3.41836
335 4 9.4974 -1.79541 3.62069
336 10 9.15992 -3.66819 4.61739
337 3 9.5495 -3.29617 5.57284
338 3 8.07505 -3.51296 4.63353
339 7 10.7904 -5.5734 4.3461
340 6 11.1069 -6.9361 4.20037
341 8 9.46709 -5.15065 4.48334
342 7 8.45124 -6.10975 4.54433
343 6 8.75187 -7.48214 4.40913
344 1 11.5906 -4.8351 4.34611
345 1 12.146 -7.23182 4.09124
346 1 7.42364 -5.77906 4.69832
347 1 10.3156 -8.94499 4.08919
348 1 7.94431 -8.20716 4.44956
349 13 6.43679 5.79805 7.18271
350 5 9.50874 5.68781 6.78874
351 5 6.15628 2.81067 7.11927
352 5 6.6739 5.97418 10.3336
353 11 9.92709 2.20217 10.8261
354 9 9.19864 3.14514 9.88836
355 2 9.52059 4.17615 10.0734
356 2 8.12625 3.02442 10.0654
357 2 9.41711 2.88037 8.84749
358 4 9.74062 2.41716 11.8244
359 4 10.9542 2.24637 10.7013
360 4 9.64344 1.21823 10.6691
361 13 6.51929 5.84465 13.3425
362 5 9.80156 5.74386 13.2229
363 5 6.68913 2.78708 13.5497
364 5 6.75102 5.79976 16.4184
365 11 10.073 3.45615 16.0266
366 9 9.27742 2.48694 16.8895
367 2 9.5599 1.45935 16.6353
368 2 8.21412 2.64663 16.6949
369 2 9.48521 2.66683 17.9485
370 4 9.89814 3.30399 15.0165
371 4 11.0947 3.36667 16.1783
372 4 9.82178 4.44558 16.2178
373 13 6.52487 5.75192 19.7195
374 5 9.733 5.79358 19.3995
375 5 6.53488 2.73853 19.7359
376 5 6.89419 5.80933 -2.1046
377 11 9.42317 3.25164 -1.45898
378 9 10.036 2.43076 -2.58146
379 2 9.68651 2.79069 21.2444
380 2 9.75497 1.38227 -2.44944
381 2 11.1224 2.52544 -2.53283
382 4 8.39093 3.17221 -1.43863
383 4 9.63922 4.26022 -1.55494
384 4 9.76612 2.95486 -0.525714
385 13 6.51092 5.97525 0.916864
386 5 9.73458 5.77907 1.05773
387 5 6.42866 2.81892 0.845609
388 5 6.41468 5.87736 3.92639
389 11 10.1777 3.20144 3.71915
390 9 9.08129 2.30317 4.25495
391 2 9.05865 2.41056 5.34092
392 2 9.30163 1.26512 3.98648
393 2 8.10911 2.61669 3.86266
394 4 11.119 2.88657 4.0217
395 4 10.0641 4.174 4.05661
396 4 10.1907 3.23938 2.68747
397 13 6.66945 12.0207 7.15848
398 5 9.6253 11.7602 7.33621
399 5 6.40198 8.94494 7.18168
400 5 6.37176 11.9438 10.2639
401 5 6.71895 15.0771 7.55777
402 11 8.92108 9.29972 10.5381
403 9 9.94892 8.43855 9.81994
404 2 9.83799 7.40238 10.1499
405 2 10.961 8.79391 10.0389
406 2 9.77645 8.49663 8.74091
407 4 8.99215 9.21414 11.569
408 4 7.94596 9.0453 10.2852
409 4 9.03824 10.3044 10.311
410 12 9.45215 14.1948 9.90906
411 6 9.26565 19.2774 9.56331
412 4 9.70218 14.3178 8.91266
413 4 8.42001 14.2618 9.95756
414 4 9.71899 13.228 10.1723
415 10 10.1398 15.2319 10.7785
416 3 9.84002 15.066 11.8204
417 3 11.2154 15.0389 10.6999
418 7 8.50925 17.1373 10.4068
419 6 8.21692 18.4336 9.96527
420 8 9.82525 16.6576 10.3803
421 7 10.8625 17.4823 9.93316
422 6 10.5913 18.8082 9.55072
423 1 7.69866 16.4754 10.7069
424 1 7.18335 18.7662 9.91537
425 1 11.8758 17.0888 9.88442
426 1 9.03494 20.2814 9.22418
427 1 11.4049 19.4417 9.2095
428 13 6.54898 11.9599 13.4761
429 5 9.73432 11.9284 13.1303
430 5 6.59723 8.89204 13.5564
431 5 6.56229 11.9051 16.5063
432 5 6.71232 14.9788 13.6282
433 11 9.03835 8.57712 16.9408
434 9 10.0184 9.16545 15.9363
435 2 9.79466 8.80784 14.9261
436 2 11.0419 8.88065 16.2003
437 2 9.9159 10.2514 15.9674
438 4 9.1021 7.54655 16.9815
439 4 8.05072 8.79726 16.7059
440 4 9.20439 8.91896 17.9051
441 12 9.30796 14.2101 16.0751
442 6 10.2743 19.2836 15.852
443 4 9.39079 14.3376 15.0501
444 4 8.32714 14.436 16.3234
445 4 9.42748 13.1979 16.2585
446 10 10.3005 15.0669 16.8472
447 3 10.1312 14.9067 17.9173
448 3 11.2993 14.6815 16.6261
449 7 9.04285 17.2232 16.2714
450 6 9.05571 18.5841 15.9218
451 8 10.254 16.5496 16.5221
452 7 11.4636 17.2559 16.4416
453 6 11.4792 18.6168 16.1144
454 1 8.10869 16.6752 16.3473
455 1 8.12447 19.0887 15.6968
456 1 12.4053 16.7357 16.6129
457 1 10.285 20.3304 15.5649
458 1 12.4298 19.1375 16.0479
459 13 6.69118 11.9963 19.502
460 5 9.81305 11.6565 19.2994
461 5 6.67038 8.82681 19.7669
462 5 6.69773 12.1485 -2.14901
463 5 7.03346 15.0237 19.4346
464 11 10.1933 8.35349 -2.74027
465 9 9.32798 9.18207 -1.79882
466 2 9.53715 8.90711 -0.760285
467 2 8.2714 8.99428 -2.00137
468 2 9.54709 10.2383 -1.96682
469 4 9.98148 7.34062 -2.68059
470 4 11.2069 8.4566 -2.53877
471 4 10.0609 8.62707 21.067
472 12 9.69107 14.2526 -2.98999
473 6 9.44477 19.3148 21.5934
474 4 9.92191 14.4476 20.8193
475 4 8.66115 14.3016 -2.92285
476 4 9.95427 13.269 -2.79694
477 10 10.3438 15.2481 -2.04256
478 3 9.98942 15.0365 -1.02333
479 3 11.4243 15.0734 -2.05524
480 7 8.72296 17.1282 -2.41248
481 6 8.41778 18.4402 -2.80361
482 8 10.0504 16.6842 -2.43145
483 7 11.0708 17.5472 -2.87297
484 6 10.7791 18.8724 21.5609
485 1 7.92031 16.4485 -2.12827
486 1 7.37903 18.7599 -2.81541
487 1 12.0889 17.171 -2.94841
488 1 9.19517 20.3197 21.2696
489 1 11.5689 19.5221 21.1955
490 13 6.79432 12.2129 0.904161
491 5 9.68898 11.9496 0.936021
492 5 6.47039 9.05433 0.987934
493 5 6.74242 12.2008 4.17179
494 5 7.05599 15.2055 0.944218
495 11 10.2938 8.16778 3.74925
496 9 9.2579 9.12064 4.32681
497 2 8.26572 8.89897 3.92423
498 2 9.53433 10.1546 4.09196
499 2 9.24529 8.98698 5.41093
500 4 10.3655 8.25626 2.72154
501 4 10.0601 7.17757 3.9482
502 4 11.2422 8.34025 4.13448
503 12 9.66947 14.4154 3.48309
504 6 9.11827 19.4154 4.3801
505 4 10.0291 14.6059 2.52918
506 4 8.64278 14.5327 3.44065
507 4 9.83856 13.4057 3.64563
508 10 10.3138 15.2825 4.55552
509 3 10.0168 14.8644 5.52698
510 3 11.4006 15.1879 4.45405
511 7 9.70843 17.4492 5.66854
512 6 9.28714 18.7893 5.62327
513 8 9.90416 16.737 4.48056
514 7 9.72016 17.3625 3.23593
515 6 9.35048 18.7156 3.18236
516 1 9.82066 16.9407 6.62919
517 1 9.07105 19.3115 6.55057
518 1 9.87797 16.8103 2.30688
519 1 8.7946 20.4487 4.33174
520 1 9.21355 19.1955 2.21552
521 13 12.5239 -0.441703 7.01773
522 5 15.6632 -0.176065 6.85741
523 5 12.7148 -3.45927 7.37532
524 5 12.5576 -0.339921 10.1926
525 12 15.8018 -2.63709 9.72295
526 6 16.1149 -7.75493 10.0896
527 4 15.5217 -2.81897 8.7416
528 4 16.832 -2.74177 9.76969
529 4 15.586 -1.64308 9.92227
530 10 15.1274 -3.58587 10.697
531 3 15.3946 -3.28411 11.717
532 3 14.0463 -3.46649 10.584
533 7 15.5699 -5.91179 11.5863
534 6 15.8583 -7.27516 11.3856
535 8 15.4983 -5.04278 10.4881
536 7 15.7294 -5.53884 9.1954
537 6 16.0561 -6.88388 8.98831
538 1 15.3877 -5.52608 12.5915
539 1 15.8851 -7.94194 12.2423
540 1 15.6555 -4.88686 8.33031
541 1 16.3571 -8.80054 9.93431
542 1 16.2367 -7.23551 7.97475
543 13 12.609 -0.474085 13.3037
544 5 15.5867 -0.226641 13.3477
545 5 12.4856 -3.48338 13.5724
546 5 12.6371 -0.482856 16.4156
547 12 15.8119 -2.842 16.0293
548 6 15.7278 -7.99474 15.6129
549 4 15.5612 -2.87792 15.0238
550 4 16.8414 -2.93376 16.0814
551 4 15.5836 -1.88756 16.3645
552 10 15.0776 -3.90679 16.8427
553 3 15.3889 -3.78368 17.8844
554 3 14.0096 -3.66777 16.7769
555 7 16.6074 -5.85438 16.3317
556 6 16.8268 -7.16794 15.9002
557 8 15.311 -5.33965 16.4175
558 7 14.2187 -6.15802 16.0982
559 6 14.4222 -7.48732 15.7015
560 1 17.4555 -5.21439 16.5665
561 1 17.8431 -7.5376 15.802
562 1 13.2138 -5.7404 16.1541
563 1 15.8931 -9.01513 15.2837
564 1 13.5737 -8.10811 15.4389
565 13 12.5429 -0.537873 19.4813
566 5 15.616 -0.420923 19.2364
567 5 12.7635 -3.57072 19.9106
568 5 12.9477 -0.264301 -2.21892
569 12 15.9462 -2.86336 -2.82779
570 6 16.286 -7.80989 -1.45117
571 4 15.6864 -3.26456 21.0493
572 4 16.9773 -2.88788 -2.77987
573 4 15.6739 -1.86518 -2.85351
574 10 15.2916 -3.60843 -1.67193
575 3 15.5683 -3.11804 -0.731435
576 3 14.2125 -3.4965 -1.79698
577 7 16.9801 -5.49061 -1.66886
578 6 17.3071 -6.85525 -1.60678
579 8 15.6427 -5.0805 -1.62758
580 7 14.6229 -6.03219 -1.4891
581 6 14.9425 -7.39733 -1.37107
582 1 17.7659 -4.73774 -1.7184
583 1 18.351 -7.15569 -1.62385
584 1 13.5906 -5.69894 -1.43642
585 1 16.5364 -8.86137 -1.3608
586 1 14.1506 -8.12657 -1.22704
587 13 12.7038 -0.445638 0.774778
588 5 15.7083 -0.258073 1.11831
589 5 12.408 -3.45833 0.972922
590 5 12.4626 -0.415284 3.91765
591 12 16.1663 -2.67116 3.69572
592 6 16.4903 -7.72723 3.0506
593 4 16.1695 -2.81202 2.6694
594 4 17.164 -2.65309 3.97632
595 4 15.7921 -1.71993 3.86861
596 10 15.3767 -3.75922 4.40648
597 3 15.5177 -3.63681 5.48885
598 3 14.3142 -3.5851 4.18937
599 7 17.1264 -5.55769 3.96288
600 6 17.4824 -6.82671 3.48635
601 8 15.7802 -5.15004 3.95937
602 7 14.7987 -6.03292 3.47719
603 6 15.1396 -7.33178 3.06137
604 1 17.9011 -4.87178 4.29681
605 1 18.5343 -7.09718 3.45705
606 1 13.7748 -5.67708 3.40239
607 1 16.765 -8.71301 2.68831
608 1 14.3722 -7.99471 2.67281
609 13 12.6025 5.65511 7.0131
610 5 15.8995 5.95322 7.29878
611 5 12.5327 2.67341 6.90154
612 5 12.7073 5.64902 10.1085
613 11 16.3928 3.30093 10.5914
614 9 15.3294 2.52979 9.82272
615 2 15.3594 2.83114 8.77124
616 2 14.3406 2.72746 10.2428
617 2 15.5345 1.45862 9.90529
618 4 16.3069 4.32487 10.4552
619 4 17.3567 3.04729 10.3056
620 4 16.3367 3.12925 11.6119
621 13 12.8028 5.83746 13.1451
622 5 15.889 5.71419 13.2325
623 5 12.6453 2.73782 13.3496
624 5 12.9214 5.92444 16.3659
625 11 15.1893 2.19571 16.0353
626 9 16.1485 3.09143 16.8002
627 2 15.9413 4.14106 16.5795
628 2 17.1815 2.84962 16.5256
629 2 15.9993 2.91655 17.8661
630 4 15.2953 2.28297 15.0083
631 4 14.1984 2.40513 16.2601
632 4 15.3215 1.19677 16.2795
633 13 12.8731 5.78321 19.4335
634 5 15.8702 5.84044 19.6663
635 5 12.7967 2.65188 19.1556
636 5 12.6155 5.56796 -2.21266
637 11 15.4219 2.35525 -3.0119
638 9 16.1155 3.06386 -1.85496
639 2 17.1949 2.9019 -1.92388
640 2 15.7473 2.68584 -0.894169
641 2 15.9158 4.13633 -1.9327
642 4 15.6554 1.34683 -3.03532
643 4 15.7112 2.73867 20.8676
644 4 14.3891 2.42182 -2.96092
645 13 12.8838 5.74649 0.801824
646 5 15.8398 5.58609 1.19668
647 5 12.5298 2.65351 0.907626
648 5 12.8062 5.58524 3.9844
649 11 15.152 2.37776 3.64253
650 9 16.1659 3.11809 4.51215
651 2 15.9562 2.92123 5.5666
652 2 16.074 4.19347 4.34309
653 2 17.1836 2.79991 4.26254
654 4 14.175 2.62766 3.88622
655 4 15.221 1.34954 3.75246
656 4 15.2688 2.59166 2.6336
657 13 12.7004 11.9423 7.05657
658 5 15.7435 11.6125 7.10682
659 5 12.7999 8.70582 6.91886
660 5 12.7313 11.819 10.1619
661 5 12.8565 14.8335 7.45066
662 11 15.0723 8.59728 9.67351
663 9 16.1459 9.19908 10.5633
664 2 16.054 10.2858 10.4943
665 2 17.1414 8.88917 10.2265
666 2 16.0103 8.88288 11.6013
667 4 15.2219 8.86782 8.68201
668 4 14.1159 8.91207 9.92482
669 4 15.0617 7.5649 9.69838
670 12 15.4629 14.2213 9.78105
671 6 16.017 19.3384 10.4862
672 4 15.6393 14.4417 8.78355
673 4 14.4535 14.3773 9.94481
674 4 15.6103 13.2013 9.87968
675 10 16.3502 15.0377 10.7127
676 3 16.1484 14.7323 11.7446
677 3 17.3855 14.7721 10.4886
678 7 14.9649 17.1577 10.7445
679 6 14.8681 18.5553 10.6859
680 8 16.2211 16.542 10.6099
681 7 17.3674 17.326 10.4197
682 6 17.2762 18.7243 10.3481
683 1 14.0797 16.5421 10.895
684 1 13.8936 19.0201 10.7872
685 1 18.3383 16.8401 10.3136
686 1 15.943 20.4177 10.4111
687 1 18.1729 19.3106 10.1664
688 13 12.8656 11.9119 13.2656
689 5 15.9347 11.8456 13.5071
690 5 12.8898 8.85379 13.0803
691 5 12.9419 11.6849 16.3536
692 5 12.9304 14.9138 13.5892
693 11 15.4401 8.40525 15.7485
694 9 16.3284 9.18783 16.7067
695 2 16.1201 8.88964 17.7402
696 2 16.135 10.2559 16.585
697 2 17.3844 8.99221 16.4884
698 4 14.4308 8.58288 15.9173
699 4 15.5918 7.38261 15.8265
700 4 15.613 8.6608 14.758
701 12 15.4863 14.171 16.2594
702 6 16.3132 19.2492 15.7445
703 4 15.3895 14.3208 15.2422
704 4 14.5404 14.3164 16.6564
705 4 15.7069 13.1658 16.3794
706 10 16.5246 15.0787 16.9017
707 3 16.3779 14.9888 17.9818
708 3 17.5253 14.7076 16.6611
709 7 16.5638 17.53 17.4613
710 6 16.5275 18.8833 17.087
711 8 16.4275 16.5329 16.4915
712 7 16.2308 16.8956 15.1479
713 6 16.1697 18.2474 14.7703
714 1 16.7141 17.2448 18.5033
715 1 16.6507 19.6473 17.8483
716 1 16.1501 16.1226 14.3835
717 1 16.2803 20.2979 15.467
718 1 16.0285 18.4965 13.7212
719 13 12.9703 11.9048 19.3908
720 5 16.0785 11.8674 19.579
721 5 12.8999 8.80019 19.6171
722 5 12.7111 11.8762 -2.27607
723 5 13.2287 14.9172 19.4774
724 11 16.4699 9.02439 -2.686
725 9 15.4688 8.36745 -1.74889
726 2 15.694 8.6422 -0.713722
727 2 15.5539 7.28142 -1.85608
728 2 14.4593 8.69247 -2.01768
729 4 17.4435 8.73434 -2.47696
730 4 16.451 10.058 -2.6261
731 4 16.3005 8.78495 21.1175
732 12 15.7623 14.1563 -2.5284
733 6 15.8851 19.2681 -2.77266
734 4 15.9858 14.3638 21.2797
735 4 14.7315 14.1679 -2.4587
736 4 16.0647 13.1805 -2.35051
737 10 16.4438 15.1379 -1.58492
738 3 16.0893 14.9603 -0.565286
739 3 17.5108 14.8945 -1.61884
740 7 14.9733 17.1769 -1.89677
741 6 14.7956 18.5037 -2.32355
742 8 16.246 16.5949 -1.95295
743 7 17.3312 17.365 -2.39264
744 6 17.1724 18.7041 -2.77846
745 1 14.1212 16.5829 -1.57436
746 1 13.7986 18.9319 -2.3024
747 1 18.3163 16.9084 -2.42762
748 1 15.7404 20.2913 21.6938
749 1 18.0293 19.2741 21.6727
750 13 12.6852 11.9171 0.763319
751 5 15.7676 11.8934 0.676325
752 5 12.6043 8.77082 0.805371
753 5 12.5425 11.8908 3.98269
754 5 12.8417 14.9829 1.11555
755 11 16.4336 8.47496 4.59803
756 9 15.4396 9.17426 3.68053
757 2 15.6549 8.92649 2.63524
758 2 15.5425 10.2534 3.82742
759 2 14.4179 8.86582 3.92199
760 4 17.4153 8.75226 4.39865
761 4 16.3913 7.44095 4.54146
762 4 16.2536 8.7183 5.5908
763 12 15.5565 14.1245 3.4733
764 6 14.7895 19.1011 4.03468
765 4 15.8545 14.3977 2.51821
766 4 14.5239 14.1433 3.4617
767 4 15.8473 13.1386 3.59773
768 10 16.1556 15.0447 4.53072
769 3 15.8712 14.6747 5.52341
770 3 17.2421 14.9643 4.44279
771 7 14.3476 16.7423 4.30315
772 6 13.8687 18.0482 4.15336
773 8 15.7172 16.4789 4.37413
774 7 16.6398 17.5357 4.32645
775 6 16.1764 18.8471 4.12892
776 1 13.6384 15.9197 4.35463
777 1 12.7957 18.2144 4.08659
778 1 17.698 17.3023 4.41946
779 1 14.4312 20.1146 3.88841
780 1 16.8851 19.6653 4.05167
781 13 18.6128 -0.265972 7.32327
782 5 -3.00339 -0.226542 7.25701
783 5 18.5463 -3.37623 7.37642
784 5 18.6069 -0.282664 10.3557
785 12 -2.49273 -2.75693 10.0102
786 6 21.4064 -7.80488 9.75212
787 4 -2.54989 -2.89257 8.98365
788 4 -1.50839 -2.95643 10.2713
789 4 -2.63365 -1.74583 10.1724
790 10 21.3031 -3.62098 10.7711
791 3 21.471 -3.48714 11.8429
792 3 20.3041 -3.23454 10.5447
793 7 -2.22916 -5.74828 10.2893
794 6 -2.18791 -7.10052 9.93313
795 8 21.3396 -5.09202 10.4422
796 7 20.1392 -5.78647 10.252
797 6 20.1691 -7.13968 9.88855
798 1 -1.30332 -5.19256 10.4271
799 1 -1.23081 -7.5931 9.78696
800 1 19.1909 -5.25795 10.3689
801 1 21.4314 -8.8555 9.47998
802 1 19.2331 -7.66658 9.7287
803 13 18.6517 -0.445323 13.3957
804 5 -2.98848 -0.34504 13.2355
805 5 18.465 -3.4229 13.4655
806 5 18.792 -0.435422 16.4053
807 12 -2.78569 -2.66473 15.8542
808 6 -2.20576 -7.67177 16.2352
809 4 -3.03825 -2.86875 14.8709
810 4 -1.75569 -2.7417 15.8865
811 4 -3.01619 -1.66931 16.0304
812 10 21.3199 -3.60879 16.8287
813 3 21.5478 -3.30023 17.8554
814 3 20.2385 -3.51814 16.6741
815 7 -1.71915 -5.39411 16.8991
816 6 -1.30631 -6.71937 16.731
817 8 -3.04279 -5.03219 16.6233
818 7 20.8508 -5.98157 16.1447
819 6 21.2712 -7.30758 15.9466
820 1 -1.01852 -4.64603 17.2573
821 1 -0.281643 -6.99484 16.9666
822 1 19.8344 -5.67432 15.9007
823 1 -1.87798 -8.6939 16.0753
824 1 20.5757 -8.0431 15.5533
825 13 18.7258 -0.610103 19.4131
826 5 -3.00698 -0.508865 19.7324
827 5 18.4436 -3.69469 19.5104
828 5 18.5777 -0.315181 -2.19392
829 12 -2.1994 -2.68912 -2.30077
830 6 -2.66417 -7.45598 21.1563
831 4 -2.24583 -2.80524 21.4729
832 4 -1.20287 -2.82143 -2.04743
833 4 -2.42335 -1.69844 -2.10028
834 10 21.6741 -3.67139 -1.5972
835 3 -2.93131 -3.64034 -0.521029
836 3 20.6523 -3.30147 -1.75012
837 7 -1.7111 -5.61891 -2.3495
838 6 -1.5535 -6.80166 -3.09012
839 8 -2.98517 -5.07301 -2.16326
840 7 20.701 -5.74168 -2.69876
841 6 20.8507 -6.92468 21.3529
842 1 -0.830593 -5.08519 -1.99141
843 1 -0.5525 -7.17235 21.5091
844 1 19.7245 -5.28012 -2.60824
845 1 -2.51789 -8.33243 20.5331
846 1 19.9826 -7.36372 20.8654
847 13 18.9063 -0.246353 0.938054
848 5 -2.76054 -0.119786 0.665473
849 5 18.9191 -3.27324 1.28473
850 5 19.066 -0.0838217 4.10921
851 12 -2.66579 -2.53713 3.44449
852 6 -2.63455 -7.66814 4.38703
853 4 -3.05023 -2.72258 2.50269
854 4 -1.64498 -2.68727 3.37628
855 4 -2.80185 -1.52371 3.61948
856 10 21.4903 -3.40131 4.52067
857 3 -2.91926 -3.06413 5.48432
858 3 20.4165 -3.19329 4.53034
859 7 -2.99067 -5.61441 5.60872
860 6 -2.78611 -6.99945 5.61215
861 8 -3.0693 -4.89561 4.41002
862 7 -2.90807 -5.56633 3.18262
863 6 -2.69823 -6.95642 3.17217
864 1 -3.08893 -5.08131 6.556
865 1 -2.73652 -7.53726 6.55528
866 1 -2.93351 -5.00192 2.24951
867 1 -2.46719 -8.74078 4.37867
868 1 -2.57032 -7.46824 2.22328
869 13 19.0388 5.96353 7.31844
870 5 -2.65722 5.94549 7.04282
871 5 18.8456 2.82244 7.47546
872 5 19.1912 5.80381 10.3678
873 11 21.3265 2.23219 10.6832
874 9 -2.5004 3.11551 9.92106
875 2 -2.69998 3.00701 8.85143
876 2 -1.47373 2.8159 10.1561
877 2 -2.63575 4.16297 10.2017
878 4 21.3978 1.23669 10.4059
879 4 20.3406 2.51108 10.5189
880 4 21.4712 2.28019 11.7077
881 13 18.9971 5.82272 13.5213
882 5 -2.63172 5.64167 13.4156
883 5 18.7911 2.71445 13.3603
884 5 18.8777 5.86018 16.5026
885 11 -2.09112 2.99431 15.9788
886 9 21.6096 2.26839 16.7517
887 2 -3.04963 1.192 16.6334
888 2 20.6253 2.5701 16.3745
889 2 21.69 2.52142 17.8164
890 4 -2.10302 2.77399 14.9688
891 4 -1.13992 2.76414 16.3318
892 4 -2.18392 4.02389 16.0451
893 13 18.9422 5.79251 19.6162
894 5 -2.83794 5.48066 19.6513
895 5 18.7404 2.64498 19.7169
896 5 18.9054 5.84315 -2.06052
897 11 21.2756 2.3806 -2.5915
898 9 -2.51099 3.17318 -1.77481
899 2 -2.65699 2.99289 -0.705122
900 2 -2.63802 4.24291 -1.96422
901 2 -1.49693 2.87922 -2.07013
902 4 20.2969 2.56155 -2.29592
903 4 21.4107 1.35647 -2.52871
904 4 21.3254 2.63351 21.2037
905 13 18.8901 5.83032 1.0841
906 5 -2.65419 6.11517 0.916955
907 5 19.0319 2.78821 0.962269
908 5 19.1204 5.77411 4.14576
909 11 21.474 2.66528 4.87632
910 9 -2.44448 3.12481 3.71947
911 2 -1.40434 2.81384 3.87886
912 2 -2.48739 4.21659 3.68543
913 2 -2.81169 2.71727 2.77062
914 4 -3.02721 3.06495 5.78655
915 4 21.4787 1.63828 4.98211
916 4 20.4778 2.92508 4.743
917 13 18.9159 11.8731 7.1669
918 5 -2.75673 12.2149 7.08596
919 5 18.8216 8.87509 7.20944
920 5 18.986 11.8752 10.221
921 5 18.8768 15.0168 7.3439
922 11 -2.16253 8.33049 10.7923
923 9 -2.94312 9.19202 9.81042
924 2 -2.75611 8.88335 8.77876
925 2 -2.65088 10.2404 9.93122
926 2 20.7933 9.07561 10.0383
927 4 -1.14141 8.37915 10.6237
928 4 -2.44037 7.33206 10.7323
929 4 -2.31939 8.61562 11.7788
930 12 21.5285 14.3385 10.0495
931 6 -3.05591 19.3669 9.8951
932 4 21.433 14.5439 9.04018
933 4 20.5824 14.4624 10.4544
934 4 -3.05455 13.3277 10.118
935 10 -2.24354 15.2008 10.7613
936 3 -2.33375 14.998 11.8351
937 3 -1.2395 14.8909 10.4483
938 7 -2.65327 17.5926 11.5133
939 6 -2.95696 18.9376 11.2316
940 8 -2.47162 16.6735 10.4658
941 7 -2.61397 17.1058 9.13392
942 6 -2.87978 18.4528 8.84599
943 1 -2.60222 17.2365 12.5438
944 1 21.6787 19.6407 12.0427
945 1 -2.51953 16.3878 8.31829
946 1 21.5059 20.4026 9.674
947 1 -2.98194 18.7704 7.81136
948 13 19.0481 11.9478 13.3397
949 5 -2.51361 11.6922 13.2373
950 5 19.2202 8.84326 13.4929
951 5 19.2763 11.9105 16.3823
952 5 19.3308 14.9266 13.3115
953 11 -2.0708 9.20677 15.9556
954 9 -2.96163 8.35088 16.8352
955 2 -2.80326 7.29337 16.6039
956 2 20.7957 8.6246 16.6535
957 2 -2.72754 8.52782 17.8896
958 4 -2.32077 9.11526 14.9534
959 4 -1.06915 8.96154 16.0511
960 4 -2.16351 10.2117 16.1885
961 12 -2.7128 14.2069 15.9943
962 6 21.3111 19.1466 15.4284
963 4 -2.20747 14.2584 15.0918
964 4 21.0816 14.2656 15.76
965 4 -2.55104 13.2532 16.3692
966 10 -2.26942 15.2998 16.9647
967 3 -2.68629 15.0721 17.9529
968 3 -1.18076 15.2255 17.0352
969 7 20.7625 16.9773 16.3632
970 6 20.3481 18.1889 15.8029
971 8 -2.67581 16.6848 16.5061
972 7 -1.70949 17.6475 16.1538
973 6 -2.1213 18.8818 15.6253
974 1 20.0212 16.2189 16.6209
975 1 19.289 18.3548 15.6186