ITEM: TIMESTEP
110000
ITEM: NUMBER OF ATOMS
1040
ITEM: BOX BOUNDS pp pp pp
-3.1308243986010456e+00 2.1730824398600653e+01
-6.9095259441535461e+01 8.1495259441535467e+01
-3.0271359834455498e+00 2.1627135983445683e+01
ITEM: ATOMS id type x y z
1 13 0.460778 -0.459096 8.90316
2 5 3.53287 -0.530614 8.87843
3 5 0.185124 -3.69586 8.75928
4 5 0.774642 -0.548443 11.9501
5 12 3.96456 -2.97392 12.1357
6 6 4.28009 -7.86807 12.5109
7 4 3.65046 -2.03254 11.7636
8 4 5.00515 -3.20517 11.8124
9 4 4.00192 -2.93477 13.164
10 10 2.97185 -3.8975 11.5392
11 3 1.99334 -3.61016 11.8615
12 3 3.05514 -3.66247 10.5074
13 7 3.33101 -6.33239 10.8211
14 6 3.9526 -7.5567 11.1669
15 8 3.29102 -5.31469 11.781
16 7 3.68663 -5.52496 13.0914
17 6 4.14986 -6.80557 13.4414
18 1 2.98355 -6.04019 9.895
19 1 4.006 -8.32006 10.3716
20 1 3.45536 -4.76922 13.8128
21 1 4.74158 -8.83716 12.7762
22 1 4.31864 -7.02795 14.5068
23 13 0.808416 -0.563174 15.1149
24 5 3.65294 -0.513527 15.1199
25 5 0.669276 -3.50211 14.9678
26 5 0.618205 -0.705846 18.1817
27 12 3.16998 -2.98619 17.7396
28 6 3.55214 -8.0564 18.2696
29 4 2.13156 -3.10372 17.7304
30 4 3.48363 -3.23316 16.7061
31 4 3.3232 -1.97403 17.8266
32 10 3.9031 -3.7574 18.6837
33 3 4.91743 -3.45456 18.4175
34 3 3.7242 -3.41161 19.7431
35 7 4.86955 -6.03942 18.3751
36 6 4.81018 -7.40984 18.228
37 8 3.69535 -5.27127 18.5045
38 7 2.44184 -5.90658 18.504
39 6 2.34819 -7.31354 18.4375
40 1 5.85653 -5.56713 18.3911
41 1 5.70463 -7.94011 17.9983
42 1 1.57185 -5.24505 18.5422
43 1 3.5699 -9.20379 18.2217
44 1 1.35525 -7.79106 18.4453
45 13 0.437668 -0.627806 21.426
46 5 3.42151 -0.450895 21.3574
47 5 0.271748 -3.69336 -2.99727
48 5 0.4242 -0.722478 -0.196238
49 12 3.64609 -3.03983 -0.657305
50 6 4.24633 -8.09718 0.0698015
51 4 3.60751 -2.08068 -0.286124
52 4 3.29089 -2.92915 -1.6311
53 4 4.64914 -3.33559 -0.795015
54 10 2.8764 -3.98952 0.326823
55 3 2.95628 -3.77111 1.3901
56 3 1.81684 -3.84783 0.162672
57 7 4.68124 -5.65647 0.0188936
58 6 5.11412 -6.98975 -0.0420155
59 8 3.31676 -5.38403 0.152998
60 7 2.41798 -6.51569 0.369213
61 6 2.9368 -7.80701 0.364819
62 1 5.41373 -4.89401 -0.0482274
63 1 6.21518 -7.19166 -0.0929813
64 1 1.31639 -6.38222 0.416423
65 1 4.51826 -9.09871 0.065494
66 1 2.18594 -8.60271 0.400955
67 13 0.42788 -0.541856 2.79232
68 5 3.55933 -0.323609 3.3195
69 5 -0.0308297 -3.59982 2.87943
70 5 0.298199 -0.303429 5.89144
71 12 4.21672 -2.70495 6.06076
72 6 3.65954 -7.76218 5.80238
73 4 3.96043 -1.74268 6.01438
74 4 5.21195 -2.74755 5.80682
75 4 4.23425 -2.88122 7.11859
76 10 3.18032 -3.51336 5.30016
77 3 2.18484 -3.15533 5.56316
78 3 3.24689 -3.63758 4.21582
79 7 3.22167 -5.83068 4.45945
80 6 3.54955 -7.20615 4.55878
81 8 3.2165 -4.93885 5.58801
82 7 3.28485 -5.47898 6.84008
83 6 3.4889 -6.88567 6.95577
84 1 3.08465 -5.39018 3.50166
85 1 3.61529 -7.79063 3.61261
86 1 3.22793 -4.83709 7.73535
87 1 3.93942 -8.81173 5.93046
88 1 3.53102 -7.27608 7.96692
89 13 0.365485 5.77496 9.13656
90 5 3.61306 5.59001 9.24566
91 5 0.607304 2.60801 8.91671
92 5 0.430373 5.62245 12.0403
93 11 3.20703 2.23044 11.5004
94 9 4.00433 2.93978 12.5927
95 2 3.77018 4.05321 12.5915
96 2 5.10187 2.88488 12.3858
97 2 3.78084 2.42474 13.5554
98 4 3.27224 2.73387 10.566
99 4 2.21853 2.17105 11.7195
100 4 3.55411 1.30737 11.3407
101 13 0.578458 5.63279 15.1962
102 5 3.6335 5.64114 15.4596
103 5 0.725877 2.6559 15.08
104 5 0.418696 5.2893 18.2806
105 11 3.89527 3.49498 18.6677
106 9 3.22146 2.30074 18.0631
107 2 2.21463 2.30047 18.394
108 2 3.67969 1.4944 18.4655
109 2 3.38606 2.33986 16.9948
110 4 4.88935 3.40143 18.5549
111 4 3.69771 3.42547 19.7082
112 4 3.55806 4.49426 18.3552
113 13 0.225908 5.5285 21.4826
114 5 3.45375 5.5351 -2.98623
115 5 0.395123 2.43861 21.1047
116 5 0.354831 5.39328 -0.215431
117 11 3.50317 3.24169 0.285402
118 9 3.40033 2.19872 -0.709258
119 2 3.62886 1.17591 -0.346965
120 2 4.08137 2.50333 -1.51163
121 2 2.43422 2.2371 -1.13678
122 4 2.95852 3.03647 1.09456
123 4 3.24672 4.08146 -0.177796
124 4 4.49044 3.41113 0.560248
125 13 0.451799 5.71043 3.03299
126 5 3.5229 5.75639 3.13522
127 5 0.401779 2.68935 2.65862
128 5 0.589911 5.78214 6.06035
129 11 2.80012 2.55333 5.43533
130 9 4.03173 3.02543 6.18667
131 2 4.01078 2.59977 7.20055
132 2 3.98521 4.13437 6.33344
133 2 4.9346 2.67304 5.74329
134 4 2.89794 2.81151 4.43039
135 4 1.91746 2.94745 5.80261
136 4 2.70008 1.51728 5.52031
137 13 0.296738 11.9741 9.0736
138 5 3.30283 11.6182 8.97949
139 5 0.471835 8.8451 9.14387
140 5 0.448948 11.946 12.2373
141 5 0.384629 14.8102 8.53677
142 11 3.25458 9.28787 11.5531
143 9 3.75345 8.48053 12.7178
144 2 3.41582 7.42209 12.6225
145 2 3.40257 8.84884 13.6741
146 2 4.81298 8.4867 12.7338
147 4 2.21579 9.3328 11.6709
148 4 3.61194 8.88782 10.6914
149 4 3.61057 10.2494 11.6497
150 12 3.60258 14.2575 12.9589
151 6 3.61892 19.2483 12.3133
152 4 3.41987 13.2626 12.8824
153 4 3.2103 14.6057 13.8665
154 4 4.61835 14.2772 13.1704
155 10 3.16675 14.9529 11.6348
156 3 3.89037 14.3984 10.9345
157 3 2.06347 14.8177 11.4494
158 7 2.28118 17.2709 11.7871
159 6 2.37248 18.6611 11.9843
160 8 3.384 16.4375 11.753
161 7 4.64928 17.0183 11.9906
162 6 4.73114 18.4035 12.2555
163 1 1.32217 16.7831 11.6587
164 1 1.46585 19.2893 11.9863
165 1 5.55267 16.3377 11.9446
166 1 3.76496 20.2999 12.5129
167 1 5.69347 18.8859 12.4337
168 13 0.496601 11.7392 15.2419
169 5 3.46948 11.7477 15.5587
170 5 0.382936 8.69517 15.1892
171 5 0.136846 11.7854 18.5541
172 5 0.544206 14.7658 15.491
173 11 4.22023 9.19721 18.536
174 9 3.04926 8.23089 18.8171
175 2 3.25387 7.22312 18.3744
176 2 2.09105 8.60206 18.4396
177 2 2.75663 8.21861 19.8904
178 4 5.11051 8.74173 18.7218
179 4 4.1327 9.91402 19.2874
180 4 4.25202 9.56929 17.5793
181 12 3.03284 14.0796 18.6771
182 6 1.92071 18.9834 18.8455
183 4 2.02415 14.1649 18.331
184 4 3.03128 14.0486 19.6472
185 4 3.33955 13.1303 18.3806
186 10 3.84892 15.1924 18.0545
187 3 4.86703 15.0904 18.3867
188 3 3.80341 15.0062 16.9886
189 7 3.02118 16.9779 19.6013
190 6 2.29601 18.1477 19.8933
191 8 3.297 16.5842 18.3064
192 7 2.8582 17.4126 17.2071
193 6 2.27856 18.6375 17.5351
194 1 3.27421 16.3113 20.4343
195 1 1.93309 18.2863 20.9264
196 1 3.07857 17.1547 16.1788
197 1 1.50643 19.9249 19.0385
198 1 1.99071 19.3053 16.7854
199 13 0.278698 11.7855 -3.00181
200 5 3.39996 11.6255 -2.9521
201 5 0.0312062 8.69654 21.5534
202 5 0.428625 11.7152 -0.10337
203 5 0.483136 14.792 -2.77173
204 11 2.87048 8.26284 -0.575015
205 9 3.84309 9.12478 0.227044
206 2 3.7526 8.85071 1.31718
207 2 3.48812 10.1575 0.0628428
208 2 4.85263 9.04273 -0.100518
209 4 2.96743 8.39743 -1.6232
210 4 1.90752 8.48087 -0.236276
211 4 3.00297 7.24409 -0.404548
212 12 3.32088 14.3439 -0.344878
213 6 2.60158 19.3171 0.581608
214 4 3.6933 13.3861 -0.223361
215 4 3.38491 14.5087 -1.33156
216 4 2.28763 14.3875 -0.0649427
217 10 4.17211 15.335 0.458091
218 3 4.20569 14.9745 1.50182
219 3 5.15103 15.3111 -0.0281
220 7 3.67202 17.4326 1.57939
221 6 3.1645 18.7219 1.72036
222 8 3.71053 16.7539 0.418675
223 7 3.1468 17.3552 -0.712617
224 6 2.60909 18.6399 -0.616111
225 1 4.06801 16.8823 2.49846
226 1 3.15555 19.3022 2.62993
227 1 3.11194 16.9652 -1.72878
228 1 2.05441 20.2155 0.596915
229 1 2.17325 19.0508 -1.43431
230 13 0.299953 11.8262 2.93405
231 5 3.51632 12.201 2.94265
232 5 0.507636 8.56186 2.98671
233 5 0.253917 11.6056 5.84255
234 5 0.0892922 15.0606 2.89965
235 11 4.26508 8.013 6.17862
236 9 3.36707 9.11356 5.67074
237 2 3.64916 10.0593 6.19721
238 2 2.34232 8.93599 5.88269
239 2 3.42517 9.28681 4.61564
240 4 4.2668 7.79704 7.23652
241 4 5.2 8.16436 5.83618
242 4 4.07219 7.11696 5.77979
243 12 3.08818 14.1 6.09103
244 6 3.05832 19.3457 6.83714
245 4 2.15212 13.9472 5.66618
246 4 2.79274 14.1935 7.05717
247 4 3.4821 13.1409 6.11057
248 10 3.99894 15.2792 5.63399
249 3 4.99129 15.1146 5.93622
250 3 4.01415 15.1776 4.5251
251 7 2.44356 17.2062 5.72177
252 6 2.14253 18.5509 6.11151
253 8 3.70318 16.6801 6.0385
254 7 4.67977 17.5123 6.64012
255 6 4.34415 18.8037 7.05987
256 1 1.6179 16.5892 5.34096
257 1 1.14773 18.9253 5.88232
258 1 5.61608 17.188 6.94035
259 1 2.7286 20.338 7.15496
260 1 5.08938 19.329 7.74578
261 13 6.6169 -0.425817 9.11848
262 5 9.91099 -0.305595 9.48135
263 5 6.51309 -3.56141 8.96726
264 5 6.52994 -0.406285 12.1848
265 12 10.6637 -2.85787 12.114
266 6 9.35648 -7.89527 11.4811
267 4 10.7774 -2.88163 11.1267
268 4 11.5856 -3.01412 12.5901
269 4 10.4562 -1.86223 12.2848
270 10 9.59267 -3.74307 12.6551
271 3 9.56955 -3.7523 13.7861
272 3 8.62333 -3.32853 12.3829
273 7 10.6947 -6.01004 12.3363
274 6 10.5908 -7.34881 11.8986
275 8 9.59012 -5.18684 12.2456
276 7 8.35401 -5.70527 11.8233
277 6 8.283 -7.01526 11.3075
278 1 11.6139 -5.68245 12.7743
279 1 11.5235 -7.95725 11.819
280 1 7.47116 -5.10677 11.9004
281 1 9.22969 -8.84856 11.142
282 1 7.32826 -7.31383 10.9673
283 13 6.76562 -0.477707 15.2365
284 5 9.94153 -0.532711 14.9568
285 5 6.34601 -3.558 15.1427
286 5 6.91592 -0.506887 18.2447
287 12 10.0164 -3.16419 17.7713
288 6 10.1572 -8.37736 17.9108
289 4 10.1981 -3.45089 16.8258
290 4 10.9148 -3.1404 18.2528
291 4 9.5538 -2.26336 17.757
292 10 9.11559 -4.19229 18.3919
293 3 9.27071 -3.92012 19.4225
294 3 8.08104 -4.07456 18.0621
295 7 10.0026 -6.35563 19.3037
296 6 10.4746 -7.6623 19.0969
297 8 9.55452 -5.5959 18.24
298 7 9.31856 -6.27207 17.0066
299 6 9.73643 -7.60826 16.7609
300 1 10.2302 -5.87332 20.2956
301 1 10.7499 -8.19697 19.9908
302 1 8.87288 -5.68582 16.1944
303 1 10.5024 -9.44683 17.782
304 1 9.43745 -8.12463 15.8739
305 13 6.58844 -0.588317 21.2964
306 5 9.57507 -0.824018 21.4428
307 5 6.37678 -3.68094 21.6019
308 5 6.41196 -0.5967 -0.0484521
309 12 9.12601 -3.11843 -0.530857
310 6 9.26903 -8.35595 0.0584485
311 4 8.10536 -3.36719 -0.562649
312 4 9.44643 -3.29847 -1.50246
313 4 9.20142 -2.09017 -0.322488
314 10 9.94371 -3.96531 0.47422
315 3 11.0236 -3.7475 0.238567
316 3 9.62904 -3.65461 1.4782
317 7 9.31364 -6.12826 -0.974247
318 6 9.09868 -7.52143 -1.06878
319 8 9.75579 -5.51777 0.224041
320 7 9.86136 -6.39339 1.33953
321 6 9.5941 -7.7701 1.30528
322 1 9.3065 -5.5724 -1.94033
323 1 8.94383 -7.93628 -2.01975
324 1 10.2104 -5.94526 2.24436
325 1 9.15079 -9.40507 0.0452278
326 1 9.66089 -8.34391 2.24605
327 13 6.5626 -0.641376 2.94622
328 5 9.68691 -0.646523 2.88929
329 5 6.45472 -3.85829 3.00779
330 5 7.05637 -0.298056 6.18095
331 12 9.87516 -3.00932 7.14953
332 6 10.2152 -7.94928 5.9142
333 4 9.12718 -3.03799 7.82683
334 4 9.90188 -1.94051 6.97622
335 4 10.768 -3.36779 7.63842
336 10 9.64785 -3.70481 5.83953
337 3 8.68122 -3.33666 5.54367
338 3 10.3844 -3.29501 5.11659
339 7 8.67137 -6.00876 5.88079
340 6 8.91133 -7.39753 5.85547
341 8 9.79471 -5.18716 5.99612
342 7 11.1079 -5.70985 6.03299
343 6 11.3626 -7.07863 6.03482
344 1 7.65491 -5.63776 5.97057
345 1 8.04655 -8.01859 5.61665
346 1 11.9254 -4.99944 6.0477
347 1 10.3088 -9.00628 5.91859
348 1 12.3417 -7.48479 6.12488
349 13 6.78997 5.64982 9.43904
350 5 9.80779 5.57191 9.30443
351 5 6.56543 2.53905 9.29572
352 5 6.85398 5.66744 12.3946
353 11 8.97337 2.17419 12.1671
354 9 10.1421 2.99865 12.7647
355 2 9.89404 2.8419 13.862
356 2 10.1752 4.02723 12.3291
357 2 11.0905 2.52815 12.5812
358 4 8.83352 2.3929 11.2053
359 4 8.01998 2.27974 12.5601
360 4 9.14359 1.13524 12.2241
361 13 6.53512 5.79882 15.457
362 5 9.84399 5.88427 15.4746
363 5 7.09674 2.6392 15.4949
364 5 6.54966 5.87819 18.5463
365 11 9.49074 2.0457 19.0817
366 9 10.2841 2.91785 18.1213
367 2 10.2562 2.51974 17.066
368 2 11.348 2.88107 18.2503
369 2 9.9327 3.96422 18.2115
370 4 9.83512 1.10542 19.213
371 4 8.45671 2.02803 18.8938
372 4 9.51869 2.57479 19.9603
373 13 6.82259 5.84664 21.6143
374 5 9.97012 5.32596 21.4129
375 5 6.73875 2.66895 21.2721
376 5 6.52166 5.75113 -0.143656
377 11 10.1807 3.0827 0.216015
378 9 9.4958 1.94877 -0.494797
379 2 9.59542 2.06992 -1.58264
380 2 8.45001 2.02574 -0.107072
381 2 9.8442 0.967779 -0.224784
382 4 11.2475 2.96488 0.278647
383 4 9.83414 3.14176 1.18382
384 4 10.0667 3.99942 -0.201791
385 13 6.8308 5.71966 2.99496
386 5 9.92876 5.61538 2.84352
387 5 6.78198 2.54578 2.72651
388 5 6.96246 5.84835 6.21741
389 11 10.1756 1.81956 5.55462
390 9 9.46457 2.80843 6.48752
391 2 8.40666 2.76704 6.39709
392 2 9.89893 3.83128 6.48163
393 2 9.4965 2.4664 7.52793
394 4 11.2068 1.59048 5.9205
395 4 10.2771 2.40176 4.68783
396 4 9.63354 0.931838 5.30028
397 13 6.627 11.8657 9.06426
398 5 9.71859 11.7122 9.00812
399 5 6.46402 8.61501 9.09134
400 5 6.25533 11.823 12.2226
401 5 6.74603 14.8238 9.19468
402 11 10.4674 7.92645 12.4676
403 9 9.31858 8.82943 12.1046
404 2 9.60901 9.79004 11.9968
405 2 8.44183 8.76471 12.8933
406 2 8.9637 8.47667 11.1143
407 4 10.9799 8.16371 13.3184
408 4 11.2566 7.89357 11.7817
409 4 10.1848 6.97171 12.6323
410 12 9.2873 14.1123 12.3523
411 6 8.89648 19.2541 12.1059
412 4 9.39619 14.2732 13.3501
413 4 9.5744 13.0975 12.1919
414 4 8.28633 14.1598 12.0991
415 10 10.0963 15.1541 11.6034
416 3 11.1326 14.9566 11.8103
417 3 9.93926 14.931 10.5682
418 7 9.75101 17.4726 10.7012
419 6 9.36069 18.8055 10.8194
420 8 9.71837 16.5726 11.8155
421 7 9.34171 17.0528 13.0734
422 6 8.68898 18.357 13.1467
423 1 10.0261 17.0009 9.69843
424 1 9.20926 19.4169 9.91757
425 1 9.31043 16.2869 13.9119
426 1 8.72782 20.3791 12.158
427 1 8.40877 18.7155 14.1638
428 13 6.56062 11.8464 15.3747
429 5 9.5601 11.4447 15.2057
430 5 6.44231 8.81705 15.6902
431 5 6.4987 11.8679 18.464
432 5 6.84379 14.9825 15.517
433 11 10.4246 8.34899 17.9498
434 9 9.43854 8.91105 18.9372
435 2 9.45687 9.92993 18.7361
436 2 9.69092 8.69043 19.9506
437 2 8.40365 8.50972 18.6913
438 4 11.3833 8.60047 18.1098
439 4 10.232 8.60045 16.9109
440 4 10.4562 7.36832 18.0305
441 12 9.83692 13.9268 18.1606
442 6 9.31874 19.1682 17.7883
443 4 9.48292 12.9719 18.4063
444 4 10.8868 13.845 18.263
445 4 9.78015 14.0559 17.1016
446 10 9.10816 15.0141 18.9933
447 3 8.07271 14.8162 18.8635
448 3 9.24659 14.8806 20.1304
449 7 8.17712 17.2007 18.3945
450 6 8.19109 18.4966 18.0074
451 8 9.33835 16.4468 18.4907
452 7 10.5623 17.078 18.2263
453 6 10.5752 18.4368 17.8231
454 1 7.25514 16.7639 18.5473
455 1 7.17976 18.9309 17.8295
456 1 11.5182 16.6074 18.3631
457 1 9.28991 20.2114 17.4263
458 1 11.5682 18.8929 17.5629
459 13 6.46012 12.0587 21.5576
460 5 9.78061 11.8319 21.5245
461 5 6.34017 8.88299 21.4556
462 5 6.58401 11.9535 -0.12202
463 5 6.10634 15.0771 21.4869
464 11 10.6432 9.29759 0.0212013
465 9 9.18022 8.68603 0.00515089
466 2 8.88858 8.36028 -1.03852
467 2 8.50199 9.38895 0.510151
468 2 9.1403 7.85702 0.708075
469 4 10.8307 9.94025 0.84786
470 4 10.8589 9.76861 -0.87751
471 4 11.3962 8.58133 0.0756655
472 12 9.21786 14.4274 0.0797362
473 6 9.37615 19.5428 -0.59652
474 4 8.27514 14.4843 -0.193364
475 4 9.36709 14.7028 1.05305
476 4 9.36781 13.452 0.0527445
477 10 10.0176 15.2424 -0.925867
478 3 11.0803 14.9549 -0.845405
479 3 9.6012 14.9745 -1.89125
480 7 9.9529 17.4135 0.542879
481 6 9.72377 18.8348 0.532179
482 8 9.85981 16.7669 -0.754958
483 7 9.37268 17.5018 -1.84372
484 6 9.12784 18.8835 -1.73237
485 1 10.2589 16.8139 1.34591
486 1 9.88451 19.3595 1.42113
487 1 9.19944 16.9662 -2.73466
488 1 9.1333 20.5158 -0.462291
489 1 8.66266 19.4262 -2.5919
490 13 6.53922 11.9426 2.98369
491 5 9.68371 11.7326 3.02248
492 5 6.62312 8.83856 2.99484
493 5 6.53151 11.9843 6.27662
494 5 7.08028 14.919 3.03334
495 11 9.93205 8.22502 6.90921
496 9 9.40701 9.09831 5.75123
497 2 8.29491 9.02719 5.9067
498 2 9.77041 8.6819 4.78026
499 2 9.68386 10.1773 5.84807
500 4 9.42031 8.40982 7.78859
501 4 10.9229 8.26491 7.00088
502 4 9.73609 7.25877 6.69896
503 12 9.54629 14.1629 5.6058
504 6 9.76938 19.3348 5.19611
505 4 9.7713 14.3188 4.55373
506 4 8.47947 14.1439 5.76283
507 4 9.96905 13.3253 5.91565
508 10 10.2846 15.2389 6.48509
509 3 9.99184 14.9786 7.52516
510 3 11.337 15.0683 6.39588
511 7 11.1357 17.5187 5.89996
512 6 11.0326 18.8313 5.36195
513 8 10.0265 16.7127 6.13507
514 7 8.70284 17.2532 6.01362
515 6 8.63152 18.5959 5.57712
516 1 12.1063 17.062 6.14706
517 1 11.9082 19.4345 5.14341
518 1 7.93826 16.5564 6.06186
519 1 9.65515 20.3551 4.6961
520 1 7.66753 19.0227 5.23032
521 13 12.9607 -0.353664 9.28305
522 5 16.0972 -0.35665 9.15711
523 5 13.025 -3.62717 9.58676
524 5 13.0907 -0.309569 12.3342
525 12 15.8725 -2.79474 11.8129
526 6 16.0657 -7.88829 11.6762
527 4 16.3966 -3.00577 10.9359
528 4 15.9816 -1.78887 12.0486
529 4 14.8907 -2.82637 11.6726
530 10 16.4241 -3.75628 12.9009
531 3 17.4701 -3.46581 13.06
532 3 15.9437 -3.62651 13.8091
533 7 14.9749 -5.80074 12.4316
534 6 14.9408 -7.06944 11.9378
535 8 16.2025 -5.22592 12.6708
536 7 17.4342 -5.9719 12.4276
537 6 17.3354 -7.31081 11.9141
538 1 14.0371 -5.23161 12.48
539 1 13.9845 -7.49951 11.5907
540 1 18.3964 -5.54445 12.5739
541 1 15.9331 -8.90378 11.2836
542 1 18.2309 -7.85373 11.6532
543 13 13.1143 -0.467363 15.4433
544 5 16.1186 -0.584743 15.4992
545 5 12.6441 -3.63433 15.3678
546 5 12.5745 -0.403927 18.3703
547 12 16.7256 -2.85849 18.0637
548 6 16.6319 -7.86024 17.538
549 4 16.6376 -1.87057 18.218
550 4 16.8266 -2.97845 17.0252
551 4 17.6079 -3.11904 18.4827
552 10 15.6137 -3.79956 18.6482
553 3 15.6956 -3.57216 19.7646
554 3 14.6779 -3.39464 18.252
555 7 16.2957 -6.16511 19.2356
556 6 16.6913 -7.43961 18.8402
557 8 15.7521 -5.26691 18.2646
558 7 15.7834 -5.67613 16.935
559 6 16.1406 -6.94415 16.6009
560 1 16.5069 -5.78258 20.1801
561 1 17.2858 -8.07991 19.613
562 1 15.5961 -5.00094 16.0678
563 1 17.0236 -8.81835 17.2601
564 1 16.1019 -7.24179 15.4671
565 13 12.8319 -0.860986 21.4755
566 5 16.0806 -0.732371 21.4075
567 5 12.7669 -3.8752 21.6103
568 5 12.9374 -0.715334 -0.227793
569 12 15.6276 -3.03242 0.233627
570 6 15.9616 -8.06913 0.0419268
571 4 15.6533 -1.98346 -0.0803054
572 4 15.8534 -3.18915 1.24307
573 4 14.5913 -3.37345 0.213218
574 10 16.379 -3.88688 -0.711405
575 3 16.3763 -3.50066 -1.67594
576 3 17.4367 -3.67563 -0.378834
577 7 17.2787 -6.23695 -0.510082
578 6 17.2272 -7.60534 -0.245439
579 8 16.1472 -5.37237 -0.519628
580 7 14.8642 -5.97415 -0.352746
581 6 14.7467 -7.35404 -0.0687557
582 1 18.2871 -5.77573 -0.595732
583 1 18.1633 -8.19951 -0.225564
584 1 13.9786 -5.31513 -0.321591
585 1 15.8685 -9.067 0.428205
586 1 13.763 -7.73218 0.100428
587 13 12.7855 -0.744496 2.93041
588 5 15.7234 -0.719866 3.04893
589 5 12.9816 -3.94533 2.86684
590 5 12.7647 -0.854639 6.13042
591 12 16.2519 -3.05831 5.69673
592 6 17.4139 -7.94035 6.37206
593 4 15.9351 -3.3013 4.67912
594 4 17.2807 -2.97601 5.84213
595 4 15.8238 -2.12942 5.78666
596 10 15.5463 -4.11093 6.53494
597 3 15.8108 -3.6799 7.55519
598 3 14.4518 -3.97177 6.38861
599 7 16.3625 -6.18971 7.76098
600 6 16.9834 -7.44124 7.63488
601 8 16.0618 -5.48152 6.58874
602 7 16.3354 -6.06395 5.33787
603 6 17.0896 -7.18255 5.25836
604 1 16.0771 -5.7782 8.75903
605 1 17.2346 -7.97949 8.59013
606 1 15.9737 -5.56714 4.40383
607 1 17.9322 -8.91014 6.22624
608 1 17.562 -7.50725 4.36433
609 13 13.0954 5.4621 9.11603
610 5 16.0021 5.72594 8.80916
611 5 13.1973 2.50213 8.76758
612 5 13.2205 5.42029 12.1452
613 11 15.8536 2.35971 12.9166
614 9 16.7137 3.07751 11.9565
615 2 17.7531 3.00563 12.1812
616 2 16.5849 4.14468 11.948
617 2 16.5568 2.69244 10.9116
618 4 14.9172 2.75615 12.8177
619 4 16.2583 2.53583 13.8702
620 4 15.8384 1.31817 12.8318
621 13 13.0875 5.54665 15.4881
622 5 16.1758 5.6758 14.9579
623 5 13.1631 2.55564 15.4907
624 5 13.1244 5.72468 18.4275
625 11 15.8144 2.09094 19.2493
626 9 16.609 2.88603 18.2161
627 2 16.3561 3.94843 18.3106
628 2 16.4025 2.49851 17.2026
629 2 17.7253 2.66811 18.4579
630 4 16.1302 2.25872 20.2283
631 4 15.7699 1.1111 19.0633
632 4 14.827 2.48424 19.1153
633 13 12.8925 5.53083 21.4948
634 5 16.0563 5.56833 21.4749
635 5 12.9244 2.49048 -2.9028
636 5 12.6469 5.66851 0.0504346
637 11 16.844 2.49463 -0.425549
638 9 15.5767 2.58234 0.493689
639 2 15.727 2.27939 1.53377
640 2 14.8486 1.97779 0.0360128
641 2 15.29 3.67597 0.558504
642 4 17.6393 3.03135 -0.0502388
643 4 16.5707 2.95719 -1.32475
644 4 17.2391 1.50289 -0.584467
645 13 12.898 5.63018 3.10911
646 5 15.9618 5.87941 3.32174
647 5 12.6535 2.46837 3.03071
648 5 12.5549 5.76762 5.91074
649 11 16.6675 2.64451 6.79061
650 9 15.539 2.65266 5.75408
651 2 15.8706 2.58924 4.69121
652 2 14.9255 3.53047 5.80729
653 2 14.961 1.75023 5.94696
654 4 17.2164 1.73769 6.81101
655 4 16.1345 2.55874 7.70586
656 4 17.3033 3.4675 6.85626
657 13 12.7557 11.8361 9.17517
658 5 15.9569 11.5839 8.85391
659 5 12.8619 8.76667 9.23167
660 5 12.7042 11.775 12.383
661 5 13.0707 14.7896 9.21735
662 11 16.8379 9.0042 12.7772
663 9 15.8494 8.43576 11.8241
664 2 14.7992 8.74618 12.061
665 2 15.9632 7.34752 11.862
666 2 16.0753 8.77085 10.806
667 4 16.7028 10.001 12.9084
668 4 17.8403 8.79824 12.4114
669 4 16.851 8.42042 13.6792
670 12 15.7711 14.1046 11.7919
671 6 15.5014 19.1706 11.886
672 4 15.0067 14.3194 11.1795
673 4 15.5611 13.1279 12.1379
674 4 16.5766 13.9516 11.2064
675 10 16.0795 15.086 12.9836
676 3 15.2888 14.8835 13.7567
677 3 16.9803 14.849 13.496
678 7 14.5728 17.0625 12.6552
679 6 14.3332 18.3594 12.1987
680 8 15.8996 16.5427 12.7063
681 7 16.9466 17.3492 12.3696
682 6 16.7896 18.6878 11.9968
683 1 13.7702 16.3608 12.9186
684 1 13.3743 18.7061 12.0815
685 1 17.8576 16.8167 12.4567
686 1 15.333 20.1861 11.673
687 1 17.6576 19.2883 11.8018
688 13 12.7738 11.6889 15.4198
689 5 15.7408 11.8436 15.5382
690 5 13.0907 8.55201 15.3842
691 5 12.6017 11.396 18.3622
692 5 12.4584 14.7664 15.6066
693 11 15.3124 9.11882 18.94
694 9 16.4083 8.31033 18.2399
695 2 16.2094 8.36884 17.1388
696 2 16.4383 7.28889 18.6669
697 2 17.3804 8.69713 18.4843
698 4 15.3044 8.95422 19.9334
699 4 14.2851 8.86741 18.7057
700 4 15.4154 10.1326 18.8399
701 12 15.1403 14.3333 18.4108
702 6 16.411 19.2613 19.0972
703 4 14.1636 14.4502 18.2237
704 4 15.3282 14.3523 19.4428
705 4 15.3322 13.3357 18.1042
706 10 16.0765 15.2859 17.696
707 3 17.0518 14.8799 17.6943
708 3 15.7688 15.1666 16.5877
709 7 14.9434 17.5648 18.1461
710 6 15.1096 18.8156 18.7332
711 8 16.089 16.7907 17.9576
712 7 17.3735 17.2885 18.2572
713 6 17.56 18.5087 18.8586
714 1 13.9866 17.0511 18.2279
715 1 14.2767 19.4248 19.1186
716 1 18.2283 16.6251 18.1316
717 1 16.4497 20.2757 19.5387
718 1 18.5416 18.6963 19.2941
719 13 12.7276 12.1672 -3.0084
720 5 15.8082 12.119 21.4987
721 5 12.9622 8.6083 -2.7573
722 5 12.8111 12.1102 -0.0388823
723 5 12.9074 15.0545 20.9619
724 11 15.6153 9.6187 0.450089
725 9 16.204 8.61158 -0.441888
726 2 17.2384 8.41789 -0.25805
727 2 16.0602 9.06445 -1.39387
728 2 15.7464 7.64456 -0.299587
729 4 16.0943 10.5737 0.365377
730 4 15.827 9.25565 1.42504
731 4 14.579 9.67187 0.325173
732 12 16.5768 14.5095 -0.0872604
733 6 15.1471 19.3935 -0.963904
734 4 16.3287 13.4562 -0.126587
735 4 17.2104 14.7889 0.725894
736 4 17.1883 14.6776 -0.908869
737 10 15.2278 15.1881 -0.0951755
738 3 14.7519 14.5766 -0.873345
739 3 14.8021 15.0829 0.915385
740 7 15.5743 17.1526 -1.68305
741 6 15.4969 18.4885 -1.99489
742 8 15.3625 16.6544 -0.357208
743 7 15.0182 17.5361 0.618712
744 6 14.9126 18.9309 0.357492
745 1 15.6139 16.4409 -2.47069
746 1 15.7741 18.7299 21.6166
747 1 14.9556 17.158 1.63808
748 1 15.0633 20.5271 -1.0646
749 1 14.6873 19.5868 1.15315
750 13 12.9225 12.097 3.1802
751 5 15.9837 12.5363 2.93329
752 5 13.0386 8.80485 2.81306
753 5 12.6345 11.8053 6.1066
754 5 12.6014 15.0073 3.22782
755 11 15.464 8.47442 6.47694
756 9 16.413 9.13715 5.49681
757 2 17.3492 8.60448 5.58239
758 2 16.6411 10.1771 5.79561
759 2 16.1232 9.02287 4.4486
760 4 15.4343 7.46125 6.1946
761 4 14.4688 8.80373 6.4103
762 4 15.8221 8.44339 7.48136
763 12 15.5299 14.1416 6.25706
764 6 15.4143 19.4113 6.88826
765 4 14.5205 14.1143 6.12119
766 4 15.6727 14.1702 7.29742
767 4 16.0718 13.3201 6.01829
768 10 16.2119 15.3409 5.65535
769 3 17.2547 15.1049 5.88708
770 3 16.2132 15.1576 4.62857
771 7 15.7714 17.0732 7.39548
772 6 15.5501 18.387 7.78013
773 8 15.9259 16.7748 6.04375
774 7 15.799 17.8224 5.08635
775 6 15.4602 19.1263 5.52964
776 1 15.8076 16.2722 8.11645
777 1 15.6497 18.617 8.8336
778 1 15.8141 17.5313 4.06301
779 1 15.2755 20.4917 7.16062
780 1 15.4619 19.9228 4.78958
781 13 19.0905 -0.557733 9.00916
782 5 -2.67457 -0.44029 9.25092
783 5 18.9134 -3.77756 9.1647
784 5 18.9462 -0.414598 12.2398
785 12 -1.87436 -3.00218 12.4847
786 6 -1.5622 -7.91048 12.1579
787 4 -2.09308 -2.00462 12.2689
788 4 -1.00184 -3.28478 12.0088
789 4 -1.63988 -3.022 13.4813
790 10 -3.03731 -3.90564 12.0331
791 3 20.8849 -3.61587 12.552
792 3 21.6557 -3.69068 10.9221
793 7 -2.17051 -5.82865 13.3584
794 6 -1.51968 -7.07862 13.3137
795 8 -2.70355 -5.33946 12.1307
796 7 -2.8722 -6.20834 11.0611
797 6 -2.26845 -7.48565 11.0368
798 1 -2.19764 -5.17686 14.2673
799 1 -0.951391 -7.3803 14.2094
800 1 21.5409 -6.0777 10.0957
801 1 -0.997751 -8.83888 12.1102
802 1 -2.34982 -8.12918 10.1232
803 13 19.1338 -0.542744 15.3313
804 5 -2.39474 -0.477962 15.0547
805 5 19.4338 -3.45921 15.6594
806 5 19.2018 -0.367599 18.3846
807 12 -2.62435 -3.15625 18.8914
808 6 -2.67552 -8.25235 18.2689
809 4 -2.17757 -3.40258 19.765
810 4 21.2236 -3.20066 19.0421
811 4 -2.43991 -2.17639 18.6999
812 10 -2.0692 -4.02054 17.8152
813 3 -2.42156 -3.69567 16.8217
814 3 -1.03037 -3.87921 17.7809
815 7 21.2872 -5.94276 18.1794
816 6 21.09 -7.36707 18.4234
817 8 -2.25391 -5.45142 18.0003
818 7 -1.17748 -6.36407 17.8995
819 6 -1.39462 -7.76724 17.8917
820 1 20.3793 -5.37856 18.0764
821 1 20.0974 -7.64329 18.7712
822 1 -0.247573 -5.89426 17.741
823 1 -2.85095 -9.3006 18.3546
824 1 -0.611751 -8.5884 18.0086
825 13 19.2289 -0.564949 21.3817
826 5 -2.58623 -0.675456 21.1667
827 5 19.2058 -3.64079 21.2503
828 5 19.1405 -0.647205 -0.299669
829 12 -2.289 -3.13323 -0.32203
830 6 -2.64617 -8.27535 -0.160364
831 4 -2.23087 -3.08702 -1.35897
832 4 -1.28414 -3.37409 -0.0612036
833 4 -2.45465 -2.11834 -0.071922
834 10 21.4352 -3.99118 0.213061
835 3 21.3793 -3.67145 1.26529
836 3 20.6065 -3.58412 -0.363503
837 7 -2.90059 -6.048 -1.1399
838 6 -2.59485 -7.39834 -1.2689
839 8 21.7028 -5.4711 0.116941
840 7 -3.04496 -6.29535 1.25881
841 6 -2.94248 -7.70138 1.11822
842 1 -2.9155 -5.40442 -2.03988
843 1 -2.31759 -7.84231 -2.2323
844 1 -3.05216 -5.85266 2.23028
845 1 -2.57116 -9.36261 -0.333014
846 1 -3.07218 -8.31067 2.01649
847 13 18.8892 -0.604883 2.7881
848 5 -2.78377 -0.42921 2.71872
849 5 18.5928 -3.66631 2.81341
850 5 19.1623 -0.554774 5.94811
851 12 -2.30696 -2.80613 6.41231
852 6 -2.8909 -7.8681 6.79403
853 4 -2.45197 -1.80247 6.16867
854 4 -1.31494 -3.03687 6.32843
855 4 -2.44318 -2.8799 7.43108
856 10 -3.11682 -3.72487 5.46971
857 3 20.6904 -3.43444 5.60366
858 3 -2.85618 -3.43553 4.44945
859 7 -1.77465 -5.96474 5.81833
860 6 -1.72389 -7.29827 6.30075
861 8 -2.97791 -5.2123 5.82797
862 7 20.6833 -5.90502 6.23369
863 6 20.7359 -7.19756 6.77666
864 1 -0.803597 -5.52859 5.54773
865 1 -0.80923 -7.68768 6.53029
866 1 19.6694 -5.37703 6.20277
867 1 -2.8131 -8.7713 7.3099
868 1 19.8526 -7.67029 7.25458
869 13 19.3195 5.60083 9.00527
870 5 -2.51674 5.98246 9.13283
871 5 19.3362 2.49256 8.94749
872 5 19.3808 5.93251 12.0955
873 11 -3.02901 1.80537 12.3169
874 9 -2.2775 2.94994 11.7294
875 2 -2.15721 2.80492 10.669
876 2 -1.28564 2.86885 12.2592
877 2 -2.74645 3.88754 11.9506
878 4 21.3618 2.00844 13.1946
879 4 -2.36656 1.05573 12.4391
880 4 20.9798 1.64281 11.7652
881 13 19.3139 5.62147 15.2212
882 5 -2.55726 5.37399 15.2951
883 5 19.1937 2.58176 15.2134
884 5 19.2439 5.78418 18.2683
885 11 -1.78978 2.08746 17.9404
886 9 -3.04146 2.6949 18.607
887 2 -2.89173 3.807 18.7324
888 2 21.6507 2.21243 19.6141
889 2 20.9893 2.42231 17.9555
890 4 -1.83685 1.08042 17.9715
891 4 -1.01832 2.43058 18.5467
892 4 -1.56863 2.33658 16.9341
893 13 19.0275 5.86603 21.4034
894 5 -2.7605 5.68669 21.5236
895 5 19.1051 2.44353 -3.02574
896 5 19.3116 5.60137 -0.18769
897 11 -2.98408 2.90396 0.444209
898 9 -2.33546 2.01914 -0.663564
899 2 -1.25484 2.00385 -0.60112
900 2 -2.64057 2.42605 -1.59952
901 2 -2.73808 1.05011 -0.567275
902 4 -2.65053 2.62393 1.40066
903 4 20.8197 2.83856 0.413474
904 4 -2.80908 3.91223 0.299946
905 13 19.1439 5.76946 3.07156
906 5 -2.67376 5.45594 2.97108
907 5 19.0254 2.6347 2.83745
908 5 19.0097 5.54666 6.00273
909 11 -3.07837 2.23394 5.30222
910 9 -2.24801 3.02991 6.37087
911 2 -2.62616 4.07948 6.29101
912 2 -1.16764 2.92216 6.09238
913 2 -2.4744 2.64813 7.37807
914 4 -2.94952 2.64267 4.27112
915 4 20.7199 2.25001 5.44436
916 4 -2.85974 1.21137 5.29223
917 13 19.0214 11.8602 8.81107
918 5 -2.76044 11.8669 8.98967
919 5 19.1944 8.71496 8.87927
920 5 18.7665 11.7751 12.1716
921 5 18.9917 14.9359 9.40244
922 11 -2.38053 8.24268 12.8145
923 9 -2.86022 9.36033 11.9178
924 2 -2.23979 10.2493 12.1694
925 2 20.9517 9.51451 12.0055
926 2 -2.59166 9.02243 10.8818
927 4 -2.57797 8.47803 13.764
928 4 -1.37731 7.96304 12.6162
929 4 -2.95089 7.3865 12.6898
930 12 21.6199 14.0219 11.9174
931 6 21.1623 19.053 12.0366
932 4 20.6655 14.3041 12.0339
933 4 -3.03147 13.0397 12.1995
934 4 -3.09929 14.056 10.9167
935 10 -2.33687 14.9377 12.7153
936 3 -2.45118 14.6813 13.7837
937 3 -1.26352 14.7784 12.4947
938 7 -3.00786 17.2536 13.5834
939 6 21.2671 18.5601 13.322
940 8 -2.64987 16.4075 12.5106
941 7 -2.85217 16.8837 11.2086
942 6 21.4974 18.1862 10.9749
943 1 -2.88833 16.9429 14.6229
944 1 20.9679 19.1715 14.16
945 1 -2.62659 16.2989 10.3675
946 1 20.6945 19.9526 11.8548
947 1 21.2259 18.4833 9.9727
948 13 19.0626 11.9239 15.2759
949 5 -2.54032 11.7088 15.3174
950 5 19.1601 8.79352 15.3612
951 5 19.0663 11.8488 18.5784
952 5 19.5414 14.8573 15.41
953 11 21.5352 9.06545 18.7654
954 9 -2.23301 8.252 18.0289
955 2 -2.4173 7.24843 18.2703
956 2 -1.21839 8.54526 18.1889
957 2 -2.37152 8.31011 16.9788
958 4 20.558 8.75225 18.5519
959 4 21.6435 10.0471 18.4408
960 4 21.7082 9.08436 19.7911
961 12 -2.84192 14.0376 18.0946
962 6 -2.95698 19.1427 19.3946
963 4 21.0838 14.3202 18.0375
964 4 -2.88576 13.0298 18.4691
965 4 -2.35689 13.8647 17.1337
966 10 -2.04512 14.9751 18.9681
967 3 -2.05294 14.5139 19.9529
968 3 -1.03352 14.8862 18.5308
969 7 -2.67558 17.0173 20.3122
970 6 -2.98792 18.3691 20.5318
971 8 -2.55042 16.3885 19.0492
972 7 -2.58951 17.258 17.9431
973 6 -2.78117 18.5716 18.1275