LAMMPS (23 Jun 2022)
OMP_NUM_THREADS environment is not set. Defaulting to 1 thread. (src/src/comm.cpp:98)
  using 1 OpenMP thread(s) per MPI task
Reading data file ...
  orthogonal box = (-3.1 -69.095259 -3.1) to (21.7 81.495259 21.7)
  2 by 16 by 4 MPI processor grid
  reading atoms ...
  1040 atoms
  scanning bonds ...
  4 = max bonds/atom
  scanning angles ...
  11 = max angles/atom
  scanning dihedrals ...
  21 = max dihedrals/atom
  reading bonds ...
  800 bonds
  reading angles ...
  1344 angles
  reading dihedrals ...
  1536 dihedrals
Finding 1-2 1-3 1-4 neighbors ...
  special bond factors lj:    0        0        0.5     
  special bond factors coul:  0        0        0.8333333333333334
     4 = max # of 1-2 neighbors
     7 = max # of 1-3 neighbors
    14 = max # of 1-4 neighbors
    16 = max # of special neighbors
  special bonds CPU = 0.005 seconds
  read_data CPU = 0.056 seconds
PPPM initialization ...
  using 12-bit tables for long-range coulomb (src/src/kspace.cpp:342)
  G vector (1/distance) = 0.16060837
  grid = 8 30 8
  stencil order = 5
  estimated absolute RMS force accuracy = 0.029618246
  estimated relative force accuracy = 8.9194468e-05
  using double precision FFTW3
  3d grid and FFT values/proc = 504 16
Generated 0 of 78 mixed pair_coeff terms from arithmetic mixing rule
Neighbor list info ...
  update every 1 steps, delay 10 steps, check yes
  max neighbors/atom: 10000, page size: 100000
  master list distance cutoff = 17
  ghost atom cutoff = 17
  binsize = 8.5, bins = 3 18 3
  3 neighbor lists, perpetual/occasional/extra = 3 0 0
  (1) pair buck/coul/long, perpetual, skip from (3)
      attributes: half, newton off
      pair build: skip
      stencil: none
      bin: none
  (2) pair lj/cut/coul/long, perpetual, skip from (3)
      attributes: half, newton off
      pair build: skip
      stencil: none
      bin: none
  (3) neighbor class addition, perpetual
      attributes: half, newton off
      pair build: half/bin/newtoff
      stencil: full/bin/3d
      bin: standard
Setting up Verlet run ...
  Unit style    : real
  Current step  : 0
  Time step     : 1
Per MPI rank memory allocation (min/avg/max) = 19.58 | 19.73 | 20.15 Mbytes
   Step          Temp          Volume        Density         TotEng         PotEng         E_bond        E_angle        E_dihed         E_coul         E_long         E_vdwl        Enthalpy        Press     
         0      298.000000   92619.192734       0.622799  -23223.575832  -24146.500202      22.970839      26.874948       4.403687  -18457.474877  -11846.078831    6102.804032    5940.011180   21590.567550
      1000      103.497616   92619.192734       0.622799  -30160.815019  -30481.353517      11.150742      44.477396      39.280740  -18780.878244  -11928.923161     133.539011  -29363.541170     590.242719
      2000       77.859631   92619.192734       0.622799  -30309.527297  -30550.663373      12.388018      41.072248      21.831100  -18524.986048  -11932.139209    -168.829481  -30724.014634    -306.855836
      3000       67.786734   92619.192734       0.622799  -30398.158339  -30608.098032      12.472750      40.315886      15.905602  -18502.150604  -11927.126484    -247.515183  -31532.014658    -839.423540
      4000       62.746471   92619.192734       0.622799  -30447.646441  -30641.976129       9.775543      37.650673      20.201105  -18728.953148  -11930.045177     -50.605125  -30212.761201     173.891697
      5000       51.309559   92619.192734       0.622799  -30489.642996  -30648.551864       9.297159      39.458659      20.777123  -18761.289257  -11929.648146     -27.147402  -30062.545586     316.191403
      6000       45.202498   92619.192734       0.622799  -30528.000485  -30667.995408      10.293241      39.535564      14.424810  -18602.268498  -11928.824542    -201.155984  -31040.076316    -379.103154
      7000       42.799592   92619.192734       0.622799  -30548.828942  -30681.381917      10.653155      39.318769      18.469706  -18605.415038  -11932.352846    -212.055663  -31090.887974    -401.300503
      8000       40.435174   92619.192734       0.622799  -30565.453580  -30690.683807      10.395656      37.072534      17.632982  -18739.319874  -11930.591922     -85.873184  -30661.955939     -71.443225
      9000       40.313003   92619.192734       0.622799  -30577.027495  -30701.879351       9.644494      38.628936      17.576705  -18733.042128  -11931.016771    -103.670587  -30710.896353     -99.106623
     10000       38.563731   92619.192734       0.622799  -30588.711903  -30708.146154      10.462519      38.639155      14.902988  -18676.532089  -11930.120630    -165.498098  -31056.004531    -345.948975
Loop time of 17.7148 on 128 procs for 10000 steps with 1040 atoms

Performance: 48.773 ns/day, 0.492 hours/ns, 564.500 timesteps/s
99.4% CPU use with 128 MPI tasks x 1 OpenMP threads

MPI task timing breakdown:
Section |  min time  |  avg time  |  max time  |%varavg| %total
---------------------------------------------------------------
Pair    | 0.0020836  | 2.1647     | 12.299     | 277.5 | 12.22
Bond    | 0.00089653 | 0.059633   | 0.30146    |  42.2 |  0.34
Kspace  | 3.4869     | 14.146     | 16.568     | 115.6 | 79.85
Neigh   | 0.11158    | 0.12241    | 0.1313     |   2.2 |  0.69
Comm    | 0.0026017  | 0.18448    | 0.58834    |  48.4 |  1.04
Output  | 0.011937   | 0.078918   | 0.079476   |   2.1 |  0.45
Modify  | 0.86481    | 0.89247    | 0.96517    |   0.9 |  5.04
Other   |            | 0.0661     |            |       |  0.37

Nlocal:          8.125 ave          44 max           0 min
Histogram: 96 0 0 0 4 6 3 3 10 6
Nghost:        853.188 ave        2959 max           0 min
Histogram: 69 11 0 0 16 0 0 16 0 16
Neighs:              0 ave           0 max           0 min
Histogram: 128 0 0 0 0 0 0 0 0 0

Total # of neighbors = 0
Ave neighs/atom = 0
Ave special neighs/atom = 6.8923077
Neighbor list builds = 72
Dangerous builds = 0
PPPM initialization ...
  using 12-bit tables for long-range coulomb (src/src/kspace.cpp:342)
  G vector (1/distance) = 0.16060837
  grid = 8 30 8
  stencil order = 5
  estimated absolute RMS force accuracy = 0.029618246
  estimated relative force accuracy = 8.9194468e-05
  using double precision FFTW3
  3d grid and FFT values/proc = 504 16
Generated 0 of 78 mixed pair_coeff terms from arithmetic mixing rule
Setting up Verlet run ...
  Unit style    : real
  Current step  : 10000
  Time step     : 1
Per MPI rank memory allocation (min/avg/max) = 19.58 | 19.73 | 20.16 Mbytes
   Step          Temp          Volume        Density         TotEng         PotEng         E_bond        E_angle        E_dihed         E_coul         E_long         E_vdwl        Enthalpy        Press     
     10000       38.563731   92619.192734       0.622799  -30588.711903  -30708.146154      10.462519      38.639155      14.902988  -18676.532089  -11930.120630    -165.498098  -31056.004531    -345.948975
     11000      164.984710   94590.312920       0.609821  -29738.026546  -30248.994361      22.395112      69.570562      48.295016  -18261.896459  -11929.267106    -198.091487  -30518.741913    -565.939721
     12000      294.529166   95870.888006       0.601675  -28909.624082  -29821.799064      44.397709     122.144880     100.073670  -18199.941935  -11922.267936      33.794549  -28753.919413     111.362506
     13000      285.958051   95519.715742       0.603887  -28887.163232  -29772.792942      64.812712     148.647618     104.724685  -18203.891784  -11922.215108      35.128935  -28870.080646      12.262660
     14000      312.043477   95403.772232       0.604621  -28831.167915  -29797.585799      80.041882     187.942625     112.368047  -18246.497143  -11926.263092      -5.178119  -28368.743540     332.352754
     15000      310.142372   94961.786124       0.607435  -28846.990342  -29807.520385      86.967613     189.286905     107.305341  -18254.785759  -11921.832280     -14.462205  -28334.998653     369.690378
     16000      304.345299   94706.319074       0.609074  -28882.937254  -29825.513404     112.518353     193.940093     115.452410  -18313.729789  -11927.335125      -6.359346  -28545.706619     244.158683
     17000      301.836817   94384.497716       0.611151  -28886.374166  -29821.181393     135.447184     215.027613     118.569337  -18312.274456  -11930.892265     -47.058806  -29303.763205    -303.224635
     18000      296.811604   95371.536395       0.604826  -28920.291731  -29839.535565     136.617048     213.251095     102.944116  -18262.129616  -11929.659900    -100.558307  -28938.877453     -13.362410
     19000      308.761536   93642.863026       0.615991  -28895.576635  -29851.830144     135.309410     243.570789     100.237271  -18415.566194  -11929.486765      14.105345  -28498.272994     290.918924
     20000      309.148563   94446.225743       0.610751  -28892.960824  -29850.412981     161.825238     235.074800     102.351644  -18400.125967  -11926.406901     -23.131795  -28655.357545     172.501125
     21000      288.527381   93935.289929       0.614073  -28915.714463  -29809.301548     169.122904     228.217963     112.515194  -18338.745926  -11927.035449     -53.376233  -28938.819778     -16.865810
     22000      294.010876   94490.749248       0.610464  -28972.680720  -29883.250526     171.692254     234.178783     100.832407  -18407.089128  -11926.329188     -56.535653  -28783.885119     137.001932
     23000      298.974974   93051.411625       0.619906  -28899.322110  -29825.266035     187.392518     251.946422     102.417841  -18473.176372  -11925.850712      32.004266  -28336.040259     415.075313
     24000      294.723022   94061.824428       0.613247  -28935.263814  -29848.039181     199.256736     246.847789     106.134886  -18373.425068  -11928.373801     -98.479724  -29010.483174     -54.832790
     25000      288.047772   93711.810519       0.615538  -28968.778438  -29860.880145     200.242818     238.373875     103.214239  -18337.869716  -11928.286555    -136.554807  -28751.710058     158.827737
     26000      298.756326   93808.261241       0.614905  -28899.455386  -29824.722145     201.458570     258.473362      95.316725  -18343.164345  -11928.272293    -108.534165  -29029.267295     -94.885000
     27000      302.725940   93545.203381       0.616634  -28879.735744  -29817.296642     214.270164     270.901826     110.029726  -18443.944286  -11923.630144     -44.923928  -29113.223840    -171.146227
     28000      302.100341   93891.208703       0.614362  -28940.895333  -29876.518710     209.199888     279.216254      88.935972  -18532.394000  -11928.053022       6.576198  -29051.868797     -81.043525
     29000      309.927387   93098.370174       0.619594  -28918.054578  -29877.918799     203.403029     267.266782      87.027875  -18435.735914  -11924.285765     -75.594806  -28742.313645     129.435963
     30000      284.546446   95048.415440       0.606882  -29003.222880  -29884.480763     206.279903     254.970762     104.032034  -18452.726050  -11927.320035     -69.717376  -29568.998127    -408.153169
     31000      287.974827   93451.653517       0.617251  -28894.968133  -29786.843924     249.781599     288.535080     106.451850  -18473.093286  -11929.348492     -29.170675  -29037.399056    -104.506044
     32000      298.393771   93558.699370       0.616545  -28954.516721  -29878.660622     203.924849     264.913817      92.931394  -18414.951501  -11928.195881     -97.283301  -28718.051702     173.303302
     33000      314.095129   93824.363838       0.614799  -28883.783916  -29856.555893     214.326664     271.483617     108.116059  -18420.063014  -11929.532185    -100.887034  -28794.114130      65.532180
     34000      290.256830   93194.946437       0.618952  -28928.992456  -29827.935752     224.880570     305.629268     100.752516  -18407.022082  -11929.771706    -122.404317  -29307.277275    -278.324002
     35000      295.316310   93674.412702       0.615783  -28940.498175  -29855.110991     228.751122     269.347622     102.179855  -18504.956760  -11926.246034     -24.186796  -29018.221369     -56.892336
     36000      293.376897   93093.599499       0.619625  -28934.576680  -29843.183016     220.677637     290.655258     110.350845  -18482.998754  -11929.339561     -52.528441  -28751.993797     134.482059
     37000      297.219878   93239.600180       0.618655  -28920.198523  -29840.706807     224.889181     307.641773      89.741518  -18502.927353  -11927.370000     -32.681927  -28892.528612      20.348457
     38000      307.496388   93425.043093       0.617427  -28877.758820  -29830.094089     243.763018     285.365424     102.080497  -18494.546299  -11926.495148     -40.261580  -29371.418775    -362.316993
     39000      294.664235   92976.565512       0.620405  -28956.303503  -29868.896802     207.447452     289.064307     107.425424  -18571.863592  -11927.201450      26.231057  -28417.347112     397.469892
     40000      291.045672   92818.393834       0.621463  -28933.509948  -29834.896333     220.983895     298.550400     110.231915  -18494.405624  -11925.399206     -44.857713  -28828.303250      77.720118
     41000      306.241220   93108.461379       0.619526  -28935.264311  -29883.712246     227.107204     282.267467     102.689174  -18522.900987  -11926.187769     -46.687335  -28757.671426     130.785779
     42000      298.915898   93279.264974       0.618392  -28922.660127  -29848.421087     228.117048     286.273017     110.905450  -18570.662212  -11927.877724      24.823334  -28075.254990     622.916863
     43000      286.874396   92848.953873       0.621258  -28948.313385  -29836.781073     232.690558     271.458564     113.081868  -18484.393226  -11923.522565     -46.096272  -29309.941007    -267.059906
     44000      289.568207   94153.291418       0.612652  -28979.078901  -29875.889488     230.335942     261.202624     112.224138  -18473.898128  -11929.798237     -75.955827  -28993.678103     -10.632067
     45000      302.380647   93013.280890       0.620160  -28954.834377  -29891.325881     232.405195     276.366383     101.512143  -18534.518159  -11926.315963     -40.775481  -28521.928691     319.133531
     46000      305.302047   93707.667881       0.615565  -28961.977757  -29907.517017     229.707845     273.850481     109.190647  -18458.083122  -11927.945114    -134.237754  -29438.085247    -348.380625
     47000      291.029193   92970.604878       0.620445  -28971.542010  -29872.877360     230.549464     293.936617     106.732525  -18520.055927  -11928.368186     -55.671854  -29044.015388     -53.451138
     48000      289.836762   93527.076714       0.616754  -28920.605135  -29818.247453     262.575385     323.850406     108.008747  -18477.408106  -11929.903600    -105.370284  -29330.814569    -300.740830
     49000      292.876835   93077.290455       0.619734  -28974.808736  -29881.866347     249.795738     295.065235      93.495123  -18580.573922  -11927.751890     -11.896631  -28705.479994     198.409783
     50000      294.393858   92809.691341       0.621521  -28948.772037  -29860.527963     244.124857     304.902984     104.818375  -18537.908971  -11926.725273     -49.739934  -29081.223190     -97.855790
     51000      294.515363   93439.547881       0.617331  -28966.141899  -29878.274132     230.847537     298.073109      99.976241  -18523.515797  -11927.754889     -55.900333  -28932.562013      24.641809
     52000      319.054421   92503.479941       0.623578  -28914.742013  -29902.873223     237.506273     302.772596      96.285605  -18558.641275  -11928.719338     -52.077083  -28870.355405      32.901674
     53000      301.757810   93171.830621       0.619105  -28927.816742  -29862.379280     258.075463     313.210119     104.447269  -18574.128876  -11924.829752     -39.153503  -28780.125839     108.690910
     54000      297.395540   92698.814876       0.622264  -28949.953004  -29871.005322     221.280868     311.584187     118.171939  -18560.350028  -11928.620119     -33.072170  -29109.362277    -117.913494
     55000      300.326584   93243.546335       0.618629  -28908.042325  -29838.172269     250.294467     318.644699     100.184360  -18528.901694  -11926.554698     -51.839402  -29210.821436    -222.654377
     56000      298.148884   93100.671311       0.619578  -28901.256684  -29824.642156     254.942977     313.926007     120.489055  -18527.947957  -11927.061489     -58.990750  -28865.536069      26.308145
     57000      290.055312   92270.213323       0.625155  -28943.118755  -29841.437937     248.201475     316.725186     108.510179  -18565.634237  -11924.183855     -25.056684  -28615.451032     243.498477
     58000      283.598636   93702.517698       0.615599  -28987.518067  -29865.840524     261.248729     297.511469     103.598517  -18527.666450  -11923.980335     -76.552454  -29483.499857    -362.943131
     59000      287.462797   93186.641880       0.619007  -28992.275523  -29882.565524     243.943405     267.599727     103.151713  -18466.223266  -11925.654519    -105.382582  -29218.778358    -166.664879
     60000      294.881697   93293.321596       0.618299  -28971.666990  -29884.933783     226.021130     312.436618     111.578083  -18568.709736  -11926.701600     -39.558277  -28823.964459     108.557914
     61000      301.056090   92988.067544       0.620329  -28930.379401  -29862.768669     263.055470     306.142058     104.920869  -18538.101921  -11925.960357     -72.824787  -29341.507230    -303.161302
     62000      306.864891   93319.182065       0.618128  -28943.386237  -29893.765720     251.893469     282.942243     104.601534  -18519.668228  -11927.536997     -85.997741  -29269.800269    -239.840216
     63000      305.925134   93056.783451       0.619871  -28934.704704  -29882.173702     259.551862     261.602524     113.107742  -18519.989195  -11926.817520     -69.629117  -29104.355213    -125.006110
     64000      307.199555   93363.724233       0.617833  -28901.931397  -29853.347353     251.280326     276.157358     109.905169  -18448.794268  -11925.924584    -115.971355  -28909.965852      -5.900685
     65000      304.594976   93292.119567       0.618307  -28903.075187  -29846.424603     251.079196     305.689073     107.645004  -18523.426272  -11926.741013     -60.670591  -28886.274223      12.348476
     66000      284.036283   92931.256227       0.620708  -28979.761249  -29859.439126     257.826046     288.045862     112.514339  -18506.759609  -11930.059512     -81.006252  -29152.285400    -127.295251
     67000      291.844569   92788.582757       0.621662  -28940.195499  -29844.056120     268.692986     293.328467     115.090547  -18573.957224  -11926.800147     -20.410749  -29227.206154    -212.093612
     68000      296.700367   92788.257928       0.621664  -28962.669115  -29881.568441     239.475736     287.361025     107.724415  -18604.299194  -11924.538022      12.707599  -28567.555489     291.979995
     69000      302.752293   92429.741433       0.624076  -28928.070902  -29865.713415     251.110803     296.030645     104.491032  -18555.659677  -11926.935733     -34.750485  -28620.943682     227.840373
     70000      287.828135   92670.245397       0.622456  -29026.230683  -29917.652159     235.670852     291.451878     113.407179  -18554.078293  -11924.338948     -79.764827  -29242.686762    -160.159825
     71000      300.271679   93061.667361       0.619838  -28960.759485  -29890.719383     238.800101     290.870388     111.719749  -18536.763178  -11928.579068     -66.767374  -28907.089995      39.544014
     72000      305.805628   92507.922695       0.623548  -28871.412048  -29818.510930     268.392245     305.491647     119.574298  -18602.009375  -11927.396830      17.437085  -28361.196980     378.179917
     73000      297.315266   92973.244060       0.620427  -28923.445251  -29844.248956     245.422006     314.670803     109.691227  -18538.823008  -11924.527003     -50.682981  -29103.977680    -133.143924
     74000      292.805392   92070.408359       0.626511  -28995.016115  -29901.852464     240.763017     306.083650     119.923174  -18567.168869  -11926.393948     -75.059489  -29013.230399     -13.564886
     75000      291.468093   93418.798987       0.617468  -28967.222741  -29869.917393     235.145586     288.019732     116.838681  -18547.786004  -11925.939338     -36.196051  -28871.897401      69.967796
     76000      312.178677   92635.972823       0.622686  -28900.854285  -29867.690890     240.981680     307.687556     100.866648  -18501.748725  -11924.777877     -90.700173  -29140.688981    -177.523746
     77000      289.120964   93004.148278       0.620221  -28973.823347  -29869.248793     258.133669     280.681179     103.200578  -18565.672078  -11926.820653     -18.771488  -28850.082236      91.229606
     78000      297.517094   93508.900994       0.616873  -28948.530752  -29869.959531     238.925664     310.487502     108.546252  -18517.515601  -11928.835192     -81.568155  -29285.877830    -247.370616
     79000      297.296705   92228.609121       0.625437  -28927.337528  -29848.083750     275.111567     302.679679     102.181898  -18574.625470  -11928.324282     -25.107142  -29288.849333    -268.770088
     80000      291.083209   93178.256060       0.619062  -28976.341068  -29877.843710     244.226641     295.565166     115.420335  -18581.691815  -11927.887849     -23.476187  -29030.346853     -39.742009
     81000      302.003943   93208.143585       0.618864  -28956.001270  -29891.326098     248.289773     291.049084      99.581916  -18501.961265  -11927.308930    -100.976676  -28994.822473     -28.558753
     82000      289.268101   93223.497454       0.618762  -28997.318149  -29893.199288     240.391808     310.059483     103.736131  -18562.418088  -11928.149683     -56.818939  -29079.889551     -60.733509
     83000      287.270414   93571.571710       0.616460  -28962.143387  -29851.837567     260.952399     297.041607      96.697486  -18502.335152  -11929.398647     -74.795260  -29145.912797    -134.664588
     84000      303.886813   92475.986822       0.623764  -28953.669100  -29894.825293     222.091126     307.168955     101.166279  -18563.845544  -11927.014525     -34.391583  -28492.892726     341.653079
     85000      290.929209   92917.187508       0.620802  -28969.066944  -29870.092637     254.456781     286.199827     103.046994  -18518.763712  -11925.007752     -70.024774  -29342.319013    -275.442073
     86000      302.902982   92761.370615       0.621845  -28884.977091  -29823.086297     260.941479     315.604888     120.965469  -18479.594857  -11931.569937    -109.433339  -28756.722525      94.804683
     87000      295.978862   93338.510355       0.618000  -28976.681685  -29893.346467     241.781113     282.262964     116.901947  -18496.087858  -11928.641037    -109.563596  -28903.017583      54.115184
     88000      296.546736   93411.343555       0.617518  -28929.764308  -29848.187828     253.207461     299.244888     109.323394  -18485.644943  -11929.168844     -95.149785  -28805.688599      91.077533
     89000      304.263678   92740.354308       0.621985  -28889.341365  -29831.664731     257.500848     300.637006     123.482171  -18508.702278  -11926.147351     -78.435126  -29331.031879    -326.567853
     90000      299.081006   92866.741395       0.621139  -28960.667529  -29886.939839     238.116560     299.820208     111.068591  -18580.521519  -11928.513452     -26.910227  -28600.707139     265.777748
     91000      310.830932   92937.216324       0.620668  -28880.147682  -29842.810238     263.698985     295.425601     117.855959  -18503.680148  -11926.880028     -89.230607  -29302.399294    -311.534226
     92000      294.382935   92267.337465       0.625174  -28971.722786  -29883.444881     246.581256     282.037218     123.718877  -18551.297635  -11929.695361     -54.789236  -28741.368345     171.187761
     93000      297.565824   92548.447743       0.623275  -28964.974805  -29886.554506     262.487363     291.521690     103.498457  -18584.964556  -11925.683659     -33.413801  -28524.430655     326.395686
     94000      312.428885   92805.754527       0.621547  -28921.768689  -29889.380206     248.739296     311.776342      98.896762  -18563.544096  -11928.248964     -56.999546  -28734.844382     138.106774
     95000      292.861260   92821.762439       0.621440  -28979.478284  -29886.487657     258.783594     290.988007     101.298608  -18507.703051  -11927.470388    -102.384427  -28958.349473      15.608076
     96000      301.699203   93289.596423       0.618324  -28916.191211  -29850.572239     262.800028     301.301244     113.163474  -18591.595162  -11928.074938      -8.166885  -28729.272303     137.386523
     97000      303.674000   92082.217391       0.626431  -28908.895078  -29849.392176     263.369095     287.827156     125.650262  -18602.688116  -11927.383570       3.832997  -28426.563632     359.164926
     98000      296.211661   92838.145925       0.621330  -28937.389929  -29854.775702     262.392256     302.734636     115.831619  -18573.747812  -11928.628231     -33.358170  -29177.725859    -177.507356
     99000      312.128453   92106.839077       0.626264  -28887.868402  -29854.549460     254.424328     302.656456     103.940717  -18652.119407  -11923.817234      60.365681  -28401.329789     362.200917
    100000      295.729469   92850.630798       0.621247  -28946.539006  -29862.431400     266.747707     292.771105     105.657504  -18519.820203  -11924.019571     -83.767943  -29364.997273    -309.023426
    101000      308.560800   93314.704129       0.618157  -28913.930636  -29869.562455     237.901683     296.447494     115.417907  -18518.092734  -11930.481434     -70.755371  -28800.514229      83.339312
    102000      287.612052   92315.330672       0.624849  -28977.700967  -29868.453221     255.803457     289.647404     102.204503  -18553.993104  -11926.861220     -35.254261  -29103.435127     -93.390686
    103000      298.314029   93047.454045       0.619933  -28946.545258  -29870.442195     248.784831     305.725767     107.742417  -18581.391735  -11929.291160     -22.012315  -28847.945506      72.660008
    104000      287.757587   92529.161603       0.623405  -29016.640773  -29907.843759     257.966200     283.450668     105.514676  -18521.730703  -11928.486159    -104.558441  -29322.314491    -226.518451
    105000      306.960494   92924.665363       0.620752  -28933.221766  -29883.897338     244.192088     317.285760     106.518514  -18514.165640  -11927.726017    -110.002043  -29220.205634    -211.763247
    106000      313.170860   93161.555399       0.619173  -28937.751767  -29907.661226     233.210172     308.039610     104.959851  -18562.124356  -11927.942459     -63.804044  -28958.952735     -15.604256
    107000      282.531752   92647.677880       0.622608  -29012.014845  -29887.033097     269.793122     276.285802     114.298240  -18539.323220  -11928.303916     -79.783126  -29199.678577    -138.889662
    108000      297.335960   93171.430434       0.619108  -28941.303966  -29862.171762     275.161087     298.529293     118.323853  -18566.704804  -11923.887747     -63.593445  -29160.929587    -161.630885
    109000      307.688524   92844.842625       0.621286  -28909.816180  -29862.746504     253.761301     294.537645     121.070564  -18584.020084  -11927.355160     -20.740770  -28939.630041     -22.018339
    110000      298.041567   92303.833748       0.624927  -28910.113743  -29833.166848     253.095479     303.762722     115.051465  -18587.111678  -11927.269065       9.304228  -28554.850883     263.908986
Loop time of 169.103 on 128 procs for 100000 steps with 1040 atoms

Performance: 51.093 ns/day, 0.470 hours/ns, 591.357 timesteps/s
99.5% CPU use with 128 MPI tasks x 1 OpenMP threads

MPI task timing breakdown:
Section |  min time  |  avg time  |  max time  |%varavg| %total
---------------------------------------------------------------
Pair    | 0.022398   | 20.945     | 115        | 855.1 | 12.39
Bond    | 0.0091403  | 0.53999    | 3.0533     | 128.3 |  0.32
Kspace  | 29.315     | 127.87     | 151.16     | 369.0 | 75.61
Neigh   | 3.7497     | 4.0307     | 4.195      |   8.0 |  2.38
Comm    | 0.049693   | 1.937      | 6.1369     | 154.0 |  1.15
Output  | 0.092658   | 0.092951   | 0.1203     |   0.8 |  0.05
Modify  | 12.376     | 12.669     | 13.292     |   7.0 |  7.49
Other   |            | 1.022      |            |       |  0.60

Nlocal:          8.125 ave          44 max           0 min
Histogram: 96 0 0 0 4 4 2 9 8 5
Nghost:         914.93 ave        3167 max           0 min
Histogram: 64 16 0 0 16 0 0 16 0 16
Neighs:              0 ave           0 max           0 min
Histogram: 128 0 0 0 0 0 0 0 0 0

Total # of neighbors = 0
Ave neighs/atom = 0
Ave special neighs/atom = 6.8923077
Neighbor list builds = 2768
Dangerous builds = 0
PPPM initialization ...
  using 12-bit tables for long-range coulomb (src/src/kspace.cpp:342)
  G vector (1/distance) = 0.16064024
  grid = 8 30 8
  stencil order = 5
  estimated absolute RMS force accuracy = 0.029600478
  estimated relative force accuracy = 8.9140961e-05
  using double precision FFTW3
  3d grid and FFT values/proc = 504 16
Generated 0 of 78 mixed pair_coeff terms from arithmetic mixing rule
Setting up Verlet run ...
  Unit style    : real
  Current step  : 110000
  Time step     : 1
Per MPI rank memory allocation (min/avg/max) = 19.58 | 19.73 | 20.16 Mbytes
   Step          Temp          Volume        Density         TotEng         PotEng         E_bond        E_angle        E_dihed         E_coul         E_long         E_vdwl        Enthalpy        Press     
    110000      298.041567   92303.833748       0.624927  -28910.099169  -29833.152274     253.095479     303.762722     115.051465  -18584.737063  -11929.629106       9.304228  -28554.776683     263.953280
    111000      297.344795   92303.833748       0.624927  -28975.977813  -29896.872972     248.852938     310.351463     106.193784  -18620.446649  -11929.309723     -12.514786  -28945.078105      22.954019
    112000      302.893399   92303.833748       0.624927  -28914.791663  -29852.871191     266.328321     313.356284      99.682221  -18556.990262  -11933.001859     -42.245895  -28925.750279      -8.140668
    113000      290.479520   92303.833748       0.624927  -28988.127498  -29887.760477     260.821121     289.578239      99.408768  -18623.124370  -11929.114271      14.670036  -28683.523336     226.276892
    114000      305.133401   92303.833748       0.624927  -28905.186883  -29850.203835     226.653358     311.741067     124.295916  -18585.948410  -11929.332298       2.386533  -28395.179226     378.862018
    115000      293.932844   92303.833748       0.624927  -28959.752808  -29870.080944     256.894717     289.937053     109.648030  -18557.622019  -11930.375127     -38.563599  -29019.942379     -44.712157
    116000      298.445457   92303.833748       0.624927  -28947.580699  -29871.884675     251.743746     296.443510     119.448916  -18596.167317  -11929.126533     -14.226996  -29077.493306     -96.506300
    117000      293.073150   92303.833748       0.624927  -28988.585462  -29896.251073     265.038642     269.621954     107.517174  -18540.866646  -11928.829949     -68.732247  -28800.054694     140.051127
    118000      301.523077   92303.833748       0.624927  -28939.860605  -29873.696160     240.856001     298.106539     104.055986  -18526.639682  -11928.110930     -61.964073  -28932.223072       5.673583
    119000      282.393400   92303.833748       0.624927  -29017.913385  -29892.503153     251.778193     286.806921     107.744022  -18630.142451  -11929.481390      20.791552  -29452.151375    -322.576100
    120000      304.561163   92303.833748       0.624927  -28927.083459  -29870.328154     245.013708     310.736229     107.731313  -18581.636230  -11929.988630     -22.184543  -28617.538334     229.947313
    121000      290.012965   92303.833748       0.624927  -29001.162351  -29899.350381     244.242241     267.918111      97.160131  -18600.206228  -11930.416287      21.951649  -28834.932197     123.484992
    122000      296.043765   92303.833748       0.624927  -28938.933493  -29855.799283     254.650385     308.208170     101.188271  -18533.653244  -11927.486521     -58.706345  -28925.452742      10.014251
    123000      296.645783   92303.833748       0.624927  -28930.512815  -29849.243091     263.847917     308.068465     112.317193  -18554.680522  -11930.980680     -47.815464  -28805.915839      92.557554
    124000      278.513526   92303.833748       0.624927  -28965.754000  -29828.327557     254.679358     311.775239     119.606552  -18574.665520  -11927.399594     -12.323593  -28858.993765      79.307433
    125000      307.648668   92303.833748       0.624927  -28933.767913  -29886.574801     259.151011     284.993926     115.424790  -18604.714298  -11930.725784     -10.704445  -29005.728498     -53.456320
    126000      293.386897   92303.833748       0.624927  -28983.671399  -29892.308704     226.237498     306.190443     102.496098  -18509.714111  -11928.318569     -89.200063  -28602.736186     282.979836
    127000      303.368908   92303.833748       0.624927  -28942.195944  -29881.748152     241.429820     287.423042     106.671503  -18579.346752  -11929.522536      -8.403229  -28687.126950     189.479418
    128000      301.236860   92303.833748       0.624927  -28991.433372  -29924.382495     226.672485     278.678044     117.507784  -18580.812321  -11928.260127     -38.168361  -29178.179376    -138.725305
    129000      299.425958   92303.833748       0.624927  -28937.852142  -29865.192790     239.846968     292.098707     114.356686  -18520.657855  -11930.299652     -60.537645  -28785.845526     112.918958
    130000      305.367634   92303.833748       0.624927  -28953.556303  -29899.298690     235.347975     287.996151     111.055273  -18547.719328  -11931.025951     -54.952811  -29052.086074     -73.193386
    131000      306.448708   92303.833748       0.624927  -28904.931194  -29854.021732     261.407026     263.911858     121.719889  -18611.402292  -11928.270510      38.612296  -28547.351827     265.629817
    132000      315.606193   92303.833748       0.624927  -28937.915244  -29915.367078     237.726943     287.985124     103.193522  -18590.497983  -11930.989283     -22.785401  -28894.312150      32.390800
    133000      295.879947   92303.833748       0.624927  -28954.626362  -29870.984795     256.756225     300.250194     110.855738  -18585.003751  -11927.030270     -26.812930  -28904.351435      37.347008
    134000      304.828034   92303.833748       0.624927  -28937.730297  -29881.801508     263.869031     300.284025     106.538325  -18601.296179  -11929.136564     -22.060145  -29052.408355     -85.189231
    135000      293.419201   92303.833748       0.624927  -28955.582314  -29864.319665     237.542831     281.168737     107.440524  -18539.247030  -11929.064795     -22.159932  -29055.291735     -74.069697
    136000      294.309468   92303.833748       0.624927  -28978.110823  -29889.605388     244.606245     305.095622     107.559268  -18547.642850  -11931.089481     -68.134191  -29214.983978    -175.962537
    137000      292.735922   92303.833748       0.624927  -28979.553262  -29886.174458     253.662879     290.585733     105.689136  -18588.022003  -11928.044895     -20.045309  -28898.758095      60.019138
    138000      299.470533   92303.833748       0.624927  -28923.893743  -29851.372444     252.536423     294.374663     107.386017  -18571.276157  -11930.183306      -4.210084  -28554.587380     274.341281
    139000      287.728681   92303.833748       0.624927  -28955.321228  -29846.434690     250.065997     300.457933     118.827395  -18566.935784  -11928.904486     -19.945746  -28718.225643     176.127771
    140000      289.094035   92303.833748       0.624927  -29008.273361  -29903.615409     227.193511     300.220774      93.479492  -18598.103837  -11926.874233       0.468883  -29018.911762      -7.902795
    141000      300.180572   92303.833748       0.624927  -28945.262527  -29874.940264     253.238538     289.499950     119.024583  -18626.143429  -11928.401682      17.841776  -28677.240895     199.101357
    142000      289.898287   92303.833748       0.624927  -28979.759052  -29877.591916     235.634734     286.221940     101.008310  -18519.046072  -11926.765244     -54.645583  -28598.432804     283.270319
    143000      302.329176   92303.833748       0.624927  -28927.515280  -29863.847376     247.332821     296.421423     121.714514  -18545.560304  -11932.287617     -51.468213  -28839.504024      65.379650
    144000      293.539951   92303.833748       0.624927  -28998.464496  -29907.575818     225.326059     304.973840     112.806516  -18620.696884  -11929.511877      -0.473471  -28875.784984      91.133156
    145000      312.505139   92303.833748       0.624927  -28938.777132  -29906.624810     220.329560     320.431390     109.184877  -18588.546599  -11931.104238     -36.919799  -28679.295852     192.757108
    146000      291.831256   92303.833748       0.624927  -28984.769231  -29888.588618     236.987625     308.448240     101.780076  -18582.928115  -11929.825874     -23.050570  -28276.678167     526.009375
    147000      298.842013   92303.833748       0.624927  -28910.926859  -29836.458995     262.793320     297.806717     128.213438  -18600.887388  -11927.181263       2.796182  -28685.699317     167.311529
    148000      304.766935   92303.833748       0.624927  -28927.391380  -29871.273365     257.316476     288.737859     100.005586  -18585.036880  -11928.911006      -3.385401  -28622.239166     226.684015
    149000      299.712327   92303.833748       0.624927  -28980.268296  -29908.495848     237.497392     288.625817     113.490464  -18536.255451  -11930.127251     -81.726819  -29202.746944    -165.269498
    150000      295.318923   92303.833748       0.624927  -28971.446085  -29886.066995     258.926036     287.044868     106.555329  -18591.011068  -11929.855975     -17.726184  -28980.839647      -6.978060
    151000      303.589296   92303.833748       0.624927  -28940.825029  -29881.059791     252.706097     290.788432     114.399716  -18575.106119  -11930.631923     -33.215994  -29247.232901    -227.616788
    152000      298.510189   92303.833748       0.624927  -28951.684850  -29876.189307     225.660277     301.564133     109.025315  -18532.113754  -11930.995735     -49.329543  -28016.426469     694.761877
    153000      301.344123   92303.833748       0.624927  -28969.022946  -29902.304271     236.492697     282.142976      96.497360  -18558.525816  -11928.647539     -30.263948  -28666.599549     224.656899
    154000      301.797299   92303.833748       0.624927  -28909.883271  -29844.568108     276.238717     272.858691     120.883169  -18587.572005  -11931.343807       4.367128  -28789.614328      89.342451
    155000      303.775438   92303.833748       0.624927  -28950.717335  -29891.528590     254.257431     290.922965     102.468843  -18537.238938  -11932.135227     -69.803664  -29410.596950    -341.624123
    156000      286.465585   92303.833748       0.624927  -28969.235086  -29856.436661     239.076366     313.869063     112.157449  -18573.974004  -11926.535048     -21.030486  -28703.149088     197.663460
    157000      298.048232   92303.833748       0.624927  -29007.139902  -29930.213648     240.961896     278.184515     100.192025  -18535.676801  -11927.885947     -85.989336  -29449.573211    -328.664038
    158000      295.840202   92303.833748       0.624927  -28960.609228  -29876.844569     243.685379     295.461067     109.284282  -18592.438665  -11928.540340      -4.296293  -28315.205304     479.441886
    159000      312.910221   92303.833748       0.624927  -28909.996154  -29879.098396     241.921453     318.101984     108.631969  -18622.802564  -11931.996599       7.045362  -28370.701863     400.617756
    160000      298.289605   92303.833748       0.624927  -28950.625116  -29874.446412     243.376912     297.848319     119.710791  -18620.585390  -11930.783664      15.986620  -28695.431887     189.571706
    161000      293.340517   92303.833748       0.624927  -28940.598117  -29849.091780     243.949271     309.597395     111.622312  -18563.706025  -11930.943129     -19.611606  -29118.135314    -131.884492
    162000      308.710513   92303.833748       0.624927  -28931.264340  -29887.359828     237.931343     292.216568     110.593726  -18559.207141  -11930.110490     -38.783835  -28183.186728     555.713605
    163000      286.539187   92303.833748       0.624927  -29027.204337  -29914.633863     235.659070     289.516179     118.377092  -18588.828584  -11929.032489     -40.325131  -28869.959171     116.810443
    164000      301.627969   92303.833748       0.624927  -28932.409487  -29866.569900     249.014935     302.829000     108.020677  -18565.815383  -11929.431208     -31.187921  -28178.884564     559.760169
    165000      291.451024   92303.833748       0.624927  -28996.998558  -29899.640343     245.468793     300.757839     102.993630  -18565.910801  -11927.073749     -55.876056  -29356.701844    -267.207582
    166000      298.806592   92303.833748       0.624927  -28972.296202  -29897.718636     239.497579     288.039734     105.099466  -18609.925626  -11928.358335       7.928547  -28711.470048     193.756156
    167000      295.335359   92303.833748       0.624927  -28957.326836  -29871.998647     238.306210     289.496096     127.302543  -18572.223846  -11930.627598     -24.252051  -28728.745523     169.802896
    168000      288.921096   92303.833748       0.624927  -28952.285738  -29847.092182     256.406032     309.736951     107.438106  -18542.462880  -11927.351571     -50.858819  -29609.109182    -487.924939
    169000      303.836293   92303.833748       0.624927  -28928.334140  -29869.333869     240.049626     311.675816     122.388735  -18643.658610  -11930.727135      30.937698  -28315.289420     455.403672
    170000      292.768943   92303.833748       0.624927  -28991.429426  -29898.152891     230.537606     287.713173     107.098275  -18593.388978  -11929.396414      -0.716552  -28471.564951     386.184210
    171000      295.603889   92303.833748       0.624927  -28932.337523  -29847.840990     263.559879     300.738368     108.220095  -18572.048031  -11927.774386     -20.536914  -28639.674009     217.406715
    172000      302.699614   92303.833748       0.624927  -28970.014599  -29907.493962     238.755093     281.113001     104.910757  -18563.702625  -11931.223809     -37.346380  -28518.867544     335.137093
    173000      301.033414   92303.833748       0.624927  -28930.176630  -29862.495669     250.903376     327.361504      93.181593  -18549.369226  -11928.785421     -55.787495  -28667.894456     194.837768
    174000      300.137446   92303.833748       0.624927  -28939.446160  -29868.990330     268.982099     297.135685     101.349020  -18540.901948  -11930.489138     -65.066049  -29121.182840    -135.004101
    175000      286.452317   92303.833748       0.624927  -28974.433377  -29861.593860     268.937950     290.893829     103.967951  -18618.827976  -11927.494313      20.928699  -28839.812452     100.003902
    176000      298.696671   92303.833748       0.624927  -28954.748009  -29879.830011     254.758345     289.066583     100.658434  -18577.170196  -11929.330620     -17.812557  -28633.814694     238.407093
    177000      297.436714   92303.833748       0.624927  -28989.958930  -29911.138768     230.941517     303.741181     105.893620  -18558.462785  -11931.853739     -61.398560  -28846.677526     106.437386
    178000      299.347794   92303.833748       0.624927  -28921.991497  -29849.090068     259.946777     300.899502     111.283643  -18521.057829  -11931.239474     -68.922687  -28806.171631      86.037430
    179000      293.036547   92303.833748       0.624927  -29030.741380  -29938.293629     229.788792     288.670840     110.744385  -18582.056393  -11930.237431     -55.203822  -28898.306560      98.379941
    180000      304.264473   92303.833748       0.624927  -28936.727151  -29879.052979     256.687925     309.158168     106.391433  -18574.348438  -11929.281259     -47.660808  -28691.895044     181.874888
    181000      294.634652   92303.833748       0.624927  -28893.135085  -29805.636764     259.366687     335.092545     111.653908  -18568.473608  -11928.708839     -14.567456  -28307.316991     435.178221
    182000      294.937079   92303.833748       0.624927  -28964.133766  -29877.572079     251.867865     311.553760     111.907556  -18611.041603  -11929.999435     -11.860224  -28787.668813     131.087970
    183000      299.594436   92303.833748       0.624927  -28974.693981  -29902.556419     238.993656     287.614857     128.429270  -18555.975501  -11928.518947     -73.099754  -29171.347074    -146.084841
    184000      306.231170   92303.833748       0.624927  -28887.206304  -29835.623115     264.378052     298.499522     127.366139  -18611.781634  -11929.919832      15.834638  -28939.616428     -38.933151
    185000      297.791668   92303.833748       0.624927  -28980.073175  -29902.352329     250.334012     290.226512     120.125634  -18607.070074  -11929.420211     -26.548202  -28321.937278     488.899902
    186000      313.322275   92303.833748       0.624927  -28857.647099  -29828.025498     288.583943     292.197013     130.570066  -18585.220333  -11930.399805     -23.756382  -28727.507399      96.674998
    187000      289.079787   92303.833748       0.624927  -28992.936137  -29888.234055     247.120590     313.674027      98.210339  -18573.346100  -11929.067162     -44.825750  -29106.906054     -84.663185
    188000      294.728484   92303.833748       0.624927  -28940.589318  -29853.381602     237.688878     327.525931      97.331942  -18541.806052  -11931.892558     -42.229743  -28941.856104      -0.941039
    189000      290.465393   92303.833748       0.624927  -29024.246168  -29923.835394     234.939663     276.845133     120.538603  -18564.522759  -11929.056074     -62.579959  -29280.530252    -190.382054
    190000      288.970301   92303.833748       0.624927  -28929.988526  -29824.947362     262.658680     334.418605     114.326613  -18567.440855  -11930.095657     -38.814748  -29085.821486    -115.761379
    191000      316.898735   92303.833748       0.624927  -28893.357917  -29874.812833     268.843773     298.211242     120.695356  -18622.588767  -11927.846093     -12.128344  -28494.753868     296.105229
    192000      295.578176   92303.833748       0.624927  -28960.906305  -29876.330135     256.924521     283.118929     116.197065  -18603.570841  -11930.131898       1.132089  -28907.990357      39.308905
    193000      310.412870   92303.833748       0.624927  -28930.401527  -29891.769320     242.093695     278.477101     110.617751  -18575.554186  -11929.704254     -17.699426  -28237.592317     514.657165
    194000      286.648905   92303.833748       0.624927  -28994.934677  -29882.704007     268.438286     293.253470     110.264754  -18611.205788  -11928.462609     -14.992119  -29096.529746     -75.470460
    195000      295.701860   92303.833748       0.624927  -28989.021419  -29904.828307     259.662924     280.372813     120.778517  -18551.656560  -11931.303016     -82.682985  -29579.824022    -438.880991
    196000      303.271043   92303.833748       0.624927  -28901.459814  -29840.708928     277.161735     285.708673     104.701156  -18555.970973  -11930.671991     -21.637528  -28147.759278     559.890625
    197000      296.893369   92303.833748       0.624927  -28963.961247  -29883.458313     241.447674     318.697296     110.749934  -18623.795584  -11927.422884      -3.134748  -28889.235859      55.510169
    198000      295.310445   92303.833748       0.624927  -28931.943549  -29846.538200     255.559412     310.438394     108.659807  -18585.687846  -11927.380746      -8.127220  -29205.792694    -203.430357
    199000      297.789894   92303.833748       0.624927  -28892.665207  -29814.938867     262.934035     311.262805     121.263020  -18549.975737  -11930.098200     -30.324789  -28945.963033     -39.592586
    200000      294.425720   92303.833748       0.624927  -28975.728136  -29887.582741     237.571481     292.556630     102.906252  -18582.067830  -11929.471865      -9.077408  -28160.162612     605.847374
    201000      303.650972   92303.833748       0.624927  -28947.694392  -29888.120171     235.450565     298.576601     102.684821  -18551.384313  -11928.939141     -44.508703  -28533.886955     307.399151
    202000      292.307757   92303.833748       0.624927  -28958.260513  -29863.555653     252.868467     320.441882     114.903950  -18598.284041  -11927.276701     -26.209211  -29270.612685    -232.032544
    203000      308.470602   92303.833748       0.624927  -28898.032679  -29853.385149     267.039562     286.603504     104.537078  -18552.091347  -11929.646789     -29.827157  -29105.986914    -154.479957
    204000      297.265824   92303.833748       0.624927  -28908.233844  -29828.884424     252.956947     301.070334     102.993957  -18587.478162  -11925.612802      27.185302  -28325.530994     432.864045
    205000      295.998615   92303.833748       0.624927  -28955.852892  -29872.578849     265.190762     304.073161      96.215205  -18542.480684  -11929.923682     -65.653611  -29169.968732    -159.057140
    206000      300.917533   92303.833748       0.624927  -28937.637570  -29869.597717     275.887000     288.885756     111.722027  -18569.185668  -11930.940730     -45.966103  -28909.499632      20.902423
    207000      292.442206   92303.833748       0.624927  -28972.455664  -29878.167203     247.896112     296.664479     106.612120  -18594.678014  -11928.452800      -6.209099  -29044.757453     -53.709785
    208000      304.515422   92303.833748       0.624927  -28927.010742  -29870.113773     244.479383     296.173679      98.591055  -18565.382603  -11930.612063     -13.363224  -28547.268583     282.093569
    209000      303.891935   92303.833748       0.624927  -28945.789370  -29886.961425     230.606759     290.538939     103.452058  -18601.809258  -11927.513886      17.763963  -28792.643657     113.765142
    210000      301.068016   92303.833748       0.624927  -28930.132742  -29862.558947     234.199696     322.416086     100.914682  -18594.289410  -11926.520275       0.720273  -28707.756416     165.193487
Loop time of 165.242 on 128 procs for 100000 steps with 1040 atoms

Performance: 52.287 ns/day, 0.459 hours/ns, 605.174 timesteps/s
99.5% CPU use with 128 MPI tasks x 1 OpenMP threads

MPI task timing breakdown:
Section |  min time  |  avg time  |  max time  |%varavg| %total
---------------------------------------------------------------
Pair    | 0.021117   | 21.19      | 117.86     | 859.7 | 12.82
Bond    | 0.0087803  | 0.53892    | 3.0974     | 128.6 |  0.33
Kspace  | 27.322     | 128.34     | 151.81     | 371.8 | 77.67
Neigh   | 3.3543     | 3.6135     | 3.7789     |   8.0 |  2.19
Comm    | 0.044986   | 1.907      | 6.0599     | 153.7 |  1.15
Output  | 0.081432   | 0.081713   | 0.10847    |   0.8 |  0.05
Modify  | 8.9069     | 8.9933     | 9.0807     |   1.3 |  5.44
Other   |            | 0.5783     |            |       |  0.35

Nlocal:          8.125 ave          43 max           0 min
Histogram: 96 0 0 1 2 4 5 5 5 10
Nghost:        913.922 ave        3165 max           0 min
Histogram: 64 16 0 0 16 0 0 16 0 16
Neighs:              0 ave           0 max           0 min
Histogram: 128 0 0 0 0 0 0 0 0 0

Total # of neighbors = 0
Ave neighs/atom = 0
Ave special neighs/atom = 6.8923077
Neighbor list builds = 2470
Dangerous builds = 0
System init for write_restart ...
PPPM initialization ...
  using 12-bit tables for long-range coulomb (src/src/kspace.cpp:342)
  G vector (1/distance) = 0.16064024
  grid = 8 30 8
  stencil order = 5
  estimated absolute RMS force accuracy = 0.029600478
  estimated relative force accuracy = 8.9140961e-05
  using double precision FFTW3
  3d grid and FFT values/proc = 504 16
Generated 0 of 78 mixed pair_coeff terms from arithmetic mixing rule
System init for write_data ...
PPPM initialization ...
  using 12-bit tables for long-range coulomb (src/src/kspace.cpp:342)
  G vector (1/distance) = 0.16064024
  grid = 8 30 8
  stencil order = 5
  estimated absolute RMS force accuracy = 0.029600478
  estimated relative force accuracy = 8.9140961e-05
  using double precision FFTW3
  3d grid and FFT values/proc = 504 16
Generated 0 of 78 mixed pair_coeff terms from arithmetic mixing rule
Total wall time: 0:05:52
