ITEM: TIMESTEP
10000
ITEM: NUMBER OF ATOMS
1040
ITEM: BOX BOUNDS pp pp pp
-3.1000000000000001e+00 2.1700000000000003e+01
-6.9095259441535461e+01 8.1495259441535467e+01
-3.1000000000000001e+00 2.1700000000000003e+01
ITEM: ATOMS id type x y z
1 13 -0.501737 -0.287581 6.58608
2 5 2.64669 -0.162221 7.10171
3 5 -0.909814 -3.21531 6.47743
4 5 -0.591386 -0.450918 9.85478
5 12 3.46434 -2.42076 10.0051
6 6 2.63856 -6.78574 7.97243
7 4 3.41216 -2.51781 8.97592
8 4 4.46369 -2.55233 10.24
9 4 3.23337 -1.43404 10.2035
10 10 2.546 -3.43427 10.6932
11 3 2.84989 -3.57018 11.7385
12 3 1.54324 -2.99865 10.6926
13 7 3.69112 -5.48171 9.73525
14 6 3.76746 -6.48888 8.76412
15 8 2.51562 -4.72856 9.90404
16 7 1.3846 -5.0469 9.14582
17 6 1.44479 -6.07162 8.18439
18 1 4.59099 -5.1747 10.2655
19 1 4.72077 -6.9707 8.55994
20 1 0.49492 -4.42719 9.24272
21 1 2.70728 -7.52205 7.1776
22 1 0.576134 -6.24184 7.55135
23 13 -0.30443 -0.292627 12.978
24 5 2.76149 -0.0871141 12.763
25 5 -0.317715 -3.23327 13.463
26 5 -0.203128 0.0180322 16.0969
27 12 2.92232 -2.31205 15.6054
28 6 3.3865 -7.34492 16.5199
29 4 2.56921 -2.58175 14.6701
30 4 3.94993 -2.39292 15.5658
31 4 2.70806 -1.30378 15.7181
32 10 2.32145 -3.1571 16.7175
33 3 2.60714 -2.72477 17.6823
34 3 1.23887 -3.06744 16.616
35 7 4.03769 -5.00826 16.4879
36 6 4.38485 -6.36105 16.4094
37 8 2.70551 -4.61855 16.6768
38 7 1.71474 -5.59862 16.7959
39 6 2.04628 -6.95816 16.6932
40 1 4.81284 -4.24696 16.4293
41 1 5.42814 -6.63173 16.2679
42 1 0.680002 -5.28997 16.9408
43 1 3.64432 -8.39612 16.4385
44 1 1.25975 -7.70493 16.7446
45 13 -0.413755 0.0753789 19.2214
46 5 2.69985 0.114288 19.5102
47 5 -0.647188 -3.06626 19.325
48 5 -0.747207 0.13003 -2.50695
49 12 3.16381 -2.42375 -2.71392
50 6 2.62624 -7.39103 -2.91016
51 4 3.19304 -2.54604 21.0604
52 4 4.10571 -2.67333 -2.35714
53 4 3.0581 -1.40765 -2.54255
54 10 2.05657 -3.21959 -2.03936
55 3 2.15372 -3.04573 -0.965895
56 3 1.08027 -2.83317 -2.3589
57 7 2.32163 -5.61334 -1.28488
58 6 2.55891 -6.96372 -1.5741
59 8 2.18782 -4.69303 -2.33261
60 7 2.27748 -5.11678 21.136
61 6 2.48926 -6.46829 20.838
62 1 2.29352 -5.25737 -0.254225
63 1 2.70242 -7.66358 -0.756776
64 1 2.23794 -4.39339 20.324
65 1 2.79735 -8.44015 21.6725
66 1 2.57506 -6.77719 19.7977
67 13 -0.549887 0.128689 0.536442
68 5 2.52421 0.0458741 0.422573
69 5 -0.576373 -2.98208 0.862019
70 5 -0.417674 -0.112002 3.7092
71 12 2.33249 -2.52449 3.18353
72 6 2.40458 -7.68016 3.90234
73 4 1.29877 -2.58049 3.18636
74 4 2.63921 -2.76015 2.22094
75 4 2.55392 -1.51766 3.30035
76 10 2.98186 -3.39873 4.26734
77 3 4.06096 -3.21736 4.22232
78 3 2.64645 -3.03423 5.24399
79 7 3.78078 -5.76484 4.51588
80 6 3.6262 -7.14982 4.36607
81 8 2.73146 -4.89335 4.1801
82 7 1.50206 -5.42365 3.74311
83 6 1.34464 -6.81164 3.57845
84 1 4.71532 -5.34938 4.88919
85 1 4.4495 -7.81304 4.61707
86 1 0.671069 -4.74977 3.52895
87 1 2.2779 -8.75358 3.79496
88 1 0.394163 -7.1997 3.21869
89 13 -0.411748 5.99009 6.67806
90 5 2.71665 5.90207 6.75695
91 5 -0.414983 2.86456 6.75817
92 5 -0.0139774 5.94853 9.85649
93 11 2.03108 2.6362 9.4295
94 9 3.12685 3.30398 10.2656
95 2 3.08352 4.38603 10.1157
96 2 4.11678 2.94032 9.96488
97 2 2.96219 3.08422 11.3247
98 4 2.18872 2.76997 8.41158
99 4 1.08728 3.02176 9.62221
100 4 1.96339 1.61413 9.58924
101 13 -0.203849 5.77139 12.9682
102 5 2.85254 6.00231 13.2292
103 5 -0.262668 2.79909 12.7571
104 5 -0.432278 5.90179 15.9377
105 11 3.56283 3.61228 16.3642
106 9 2.5304 2.76023 15.6465
107 2 2.71436 2.80134 14.57
108 2 1.52347 3.12468 15.8674
109 2 2.62345 1.72911 15.9885
110 4 3.4809 4.62292 16.1492
111 4 4.53296 3.32677 16.1312
112 4 3.4793 3.52651 17.3931
113 13 -0.314023 6.13086 19.1086
114 5 2.80824 6.10834 18.9209
115 5 -0.541792 3.1233 19.1408
116 5 -0.364174 6.27717 -2.53183
117 11 3.26269 2.73715 -1.95082
118 9 2.3687 3.53833 -2.88254
119 2 2.65369 3.34229 20.8795
120 2 2.5043 4.60115 -2.66032
121 2 1.32469 3.24054 -2.73206
122 4 4.25912 3.02121 -2.00841
123 4 3.23452 1.72747 -2.17676
124 4 2.97775 2.82315 -0.957933
125 13 -0.295953 6.22251 0.499215
126 5 2.9116 6.27659 0.639975
127 5 -0.174915 3.10666 0.505222
128 5 -0.369028 6.12305 3.62463
129 11 3.08318 3.69641 3.21434
130 9 2.30562 2.68546 4.04409
131 2 2.5657 2.79897 5.10161
132 2 2.54828 1.66945 3.7204
133 2 1.23902 2.87226 3.88024
134 4 4.10875 3.57723 3.30683
135 4 2.87974 4.67573 3.49479
136 4 2.85865 3.62042 2.20463
137 13 -0.187027 12.0477 6.72295
138 5 2.9454 12.0244 7.15679
139 5 -0.288708 9.0742 6.84508
140 5 -0.420563 11.9663 10.0233
141 5 -0.0884547 15.1492 7.11917
142 11 2.63846 8.41341 9.15492
143 9 3.07289 9.34771 10.2614
144 2 4.16236 9.41204 10.256
145 2 2.74374 8.97036 11.2352
146 2 2.64206 10.3341 10.0885
147 4 2.9779 7.44971 9.31927
148 4 3.00204 8.70725 8.22883
149 4 1.61234 8.36035 9.06655
150 12 2.37408 14.4707 9.73453
151 6 3.53096 19.4756 9.28802
152 4 2.41611 14.52 8.70305
153 4 1.42457 14.7882 9.99991
154 4 2.42106 13.4651 9.98295
155 10 3.49162 15.2936 10.3733
156 3 3.40851 15.173 11.4568
157 3 4.44672 14.8541 10.0788
158 7 2.2912 17.4746 9.86839
159 6 2.30206 18.8183 9.48068
160 8 3.49748 16.7654 10.0166
161 7 4.72045 17.4291 9.83258
162 6 4.7388 18.7814 9.47213
163 1 1.3471 16.9528 10.0104
164 1 1.36239 19.3429 9.33763
165 1 5.64906 16.8735 9.97083
166 1 3.55072 20.5201 8.98954
167 1 5.68988 19.2756 9.30691
168 13 -0.196246 12.2793 12.9379
169 5 2.93472 12.092 12.9243
170 5 -0.359055 8.96972 13.0513
171 5 0.105197 12.1712 15.9973
172 5 0.310529 15.362 12.9233
173 11 2.16983 8.54234 15.8054
174 9 3.24123 9.4304 16.418
175 2 3.16835 9.38087 17.5076
176 2 3.08337 10.4579 16.0834
177 2 4.23612 9.0913 16.1209
178 4 1.21289 8.84604 16.0656
179 4 2.26527 7.55121 16.092
180 4 2.20609 8.56428 14.7711
181 12 2.82648 14.6556 15.4665
182 6 2.66665 19.7483 16.196
183 4 3.06533 14.8414 14.4763
184 4 1.80159 14.7783 15.5444
185 4 3.00018 13.6434 15.6179
186 10 3.59836 15.52 16.4564
187 3 3.32787 15.1578 17.4569
188 3 4.66821 15.3303 16.3157
189 7 3.09461 17.7494 17.5161
190 6 2.779 19.1159 17.4467
191 8 3.31549 17.0069 16.3455
192 7 3.22195 17.6459 15.1012
193 6 2.87623 19.0094 15.0202
194 1 3.15265 17.2324 18.4768
195 1 2.58782 19.6678 18.3615
196 1 3.38638 17.077 14.1844
197 1 2.39401 20.7975 16.1385
198 1 2.77858 19.478 14.0438
199 13 -0.0437432 12.1777 19.1367
200 5 3.06001 12.1025 19.4941
201 5 -0.260155 9.16926 18.7782
202 5 -0.280091 12.2257 -2.45419
203 5 0.070804 15.2648 19.3855
204 11 3.65789 9.51713 -2.20609
205 9 2.57019 8.76962 -2.95736
206 2 1.581 9.14051 -2.6622
207 2 2.65338 7.70413 -2.72215
208 2 2.70571 8.92132 20.7696
209 4 3.52303 9.45518 -1.17969
210 4 3.68275 10.526 -2.44367
211 4 4.60616 9.14214 -2.40397
212 12 2.47345 14.6376 -2.81179
213 6 2.63589 19.6346 21.4461
214 4 2.67544 14.7051 20.9742
215 4 1.46303 14.8292 -2.70908
216 4 2.59886 13.6454 -2.53944
217 10 3.33721 15.5952 -2.02056
218 3 3.1295 15.4298 -0.9618
219 3 4.3874 15.3245 -2.19797
220 7 1.76811 17.5246 -2.52412
221 6 1.54087 18.815 -3.03285
222 8 3.07625 17.0338 -2.39491
223 7 4.15956 17.8457 -2.74138
224 6 3.94804 19.1534 21.6112
225 1 0.929644 16.866 -2.31123
226 1 0.522364 19.1585 21.6079
227 1 5.16311 17.4261 -2.69924
228 1 2.47232 20.6325 21.0535
229 1 4.79654 19.7678 21.3289
230 13 -0.124869 12.3403 0.574172
231 5 3.00539 12.1749 0.295922
232 5 -0.00460839 9.20497 0.658626
233 5 0.0889636 12.1656 3.73992
234 5 0.110672 15.287 0.772533
235 11 3.25426 9.61651 3.01686
236 9 2.53502 8.82771 4.0962
237 2 2.83152 9.1485 5.10033
238 2 2.76151 7.7666 3.96196
239 2 1.46354 8.96911 3.95977
240 4 4.28156 9.5305 3.10887
241 4 3.03796 10.6281 3.05164
242 4 3.00587 9.28637 2.0619
243 12 2.67846 14.7257 3.28816
244 6 1.9142 19.6661 4.38516
245 4 2.96462 15.0009 2.32919
246 4 1.64461 14.7851 3.31758
247 4 2.91449 13.7233 3.38866
248 10 3.33132 15.5831 4.37047
249 3 3.09377 15.1338 5.34351
250 3 4.41702 15.5064 4.24017
251 7 2.59771 17.6708 5.57692
252 6 2.12472 18.9899 5.59588
253 8 2.90002 17.036 4.35906
254 7 2.74415 17.7396 3.15371
255 6 2.21795 19.0408 3.16234
256 1 2.71204 17.1152 6.50736
257 1 1.87671 19.4515 6.54604
258 1 2.96627 17.2529 2.20509
259 1 1.51586 20.6753 4.39137
260 1 2.03493 19.5502 2.21975
261 13 5.74986 -0.0980444 6.75138
262 5 8.89495 -0.048067 6.67277
263 5 5.87578 -3.12662 7.29832
264 5 6.23773 -0.0069974 10.0398
265 12 9.10681 -2.41502 9.26774
266 6 10.0262 -7.34007 10.1382
267 4 8.69791 -2.74835 8.37726
268 4 10.1262 -2.42162 9.12043
269 4 8.83469 -1.42139 9.35452
270 10 8.67875 -3.24036 10.4666
271 3 9.03624 -2.74488 11.3775
272 3 7.58653 -3.21093 10.4858
273 7 10.5173 -4.95792 10.1569
274 6 10.9476 -6.28276 10.0138
275 8 9.16135 -4.67506 10.4058
276 7 8.24708 -5.72807 10.5481
277 6 8.67527 -7.06203 10.4294
278 1 11.2224 -4.13406 10.0596
279 1 11.9915 -6.48129 9.78727
280 1 7.20117 -5.48947 10.7343
281 1 10.3578 -8.36556 10.0124
282 1 7.95479 -7.86961 10.5146
283 13 5.84694 0.0782744 13.0155
284 5 8.92244 0.118332 13.3221
285 5 5.8704 -3.11629 13.3639
286 5 5.53187 0.0875369 16.1907
287 12 8.34231 -2.4233 16.0403
288 6 8.21883 -7.56711 16.028
289 4 7.32142 -2.57415 16.1262
290 4 8.55883 -2.47942 15.0273
291 4 8.51996 -1.44239 16.3246
292 10 9.14948 -3.41971 16.8718
293 3 10.2087 -3.19483 16.698
294 3 8.93073 -3.22238 17.924
295 7 8.70553 -5.80127 17.6356
296 6 8.39249 -7.1479 17.3595
297 8 8.85606 -4.88066 16.5812
298 7 8.70442 -5.30576 15.2569
299 6 8.37206 -6.64175 14.9785
300 1 8.80613 -5.45019 18.6641
301 1 8.26115 -7.84833 18.1788
302 1 8.83583 -4.60709 14.4296
303 1 7.96978 -8.59977 15.8047
304 1 8.24308 -6.94468 13.9412
305 13 5.77055 -0.0119898 19.2955
306 5 8.79055 -0.130267 19.2286
307 5 5.76254 -3.0486 19.5175
308 5 5.82468 0.145009 -2.32197
309 12 9.09515 -2.43945 -2.74731
310 6 8.73161 -7.50013 21.6255
311 4 8.85243 -2.58317 21.0551
312 4 10.1207 -2.54736 -2.67605
313 4 8.87085 -1.44806 -2.53228
314 10 8.33633 -3.4003 -1.85
315 3 8.60448 -3.22275 -0.799595
316 3 7.29218 -3.10416 -1.9861
317 7 9.74468 -5.42946 -2.40679
318 6 9.88239 -6.74032 -2.89735
319 8 8.47784 -4.86671 -2.22423
320 7 7.32948 -5.63241 -2.49036
321 6 7.45635 -6.93695 -2.9908
322 1 10.6221 -4.81881 -2.21151
323 1 10.8746 -7.14118 -3.07363
324 1 6.34635 -5.17331 -2.37345
325 1 8.83362 -8.50899 21.2394
326 1 6.56301 -7.49618 21.5493
327 13 5.6678 -0.119914 0.746486
328 5 8.76857 -0.0686193 0.627392
329 5 5.2461 -3.11569 0.535447
330 5 5.49763 -0.190681 3.7649
331 12 9.26428 -2.33139 3.55154
332 6 8.43391 -7.04195 2.01985
333 4 9.19994 -2.40758 2.5213
334 4 10.2671 -2.4702 3.7789
335 4 9.04077 -1.35254 3.80978
336 10 8.37927 -3.35678 4.25667
337 3 8.67814 -3.41521 5.30935
338 3 7.35553 -2.97453 4.22867
339 7 9.63573 -5.32222 3.24392
340 6 9.64513 -6.49351 2.47195
341 8 8.41444 -4.71689 3.59189
342 7 7.21147 -5.26787 3.13891
343 6 7.21656 -6.4028 2.31644
344 1 10.5689 -4.84407 3.5371
345 1 10.5931 -6.91513 2.15013
346 1 6.28343 -4.73755 3.33403
347 1 8.43556 -7.90122 1.35773
348 1 6.28372 -6.73881 1.8693
349 13 5.84177 5.98029 6.81652
350 5 8.91514 5.87876 6.63078
351 5 5.72468 3.01514 6.85801
352 5 5.90194 6.3373 9.99852
353 11 9.3914 2.61795 10.7343
354 9 8.65975 3.37491 9.63807
355 2 8.88895 4.44151 9.72266
356 2 7.57988 3.23079 9.75737
357 2 8.96701 3.00837 8.64999
358 4 9.09353 2.92536 11.6779
359 4 10.4193 2.72763 10.6706
360 4 9.18309 1.60346 10.6759
361 13 5.90677 6.08814 13.0371
362 5 9.10229 6.00853 12.8671
363 5 6.02078 3.10235 13.1712
364 5 6.22782 6.26794 16.1832
365 11 9.39979 3.62789 15.6286
366 9 8.53477 2.76244 16.5257
367 2 8.72775 1.70614 16.3278
368 2 7.48558 2.98468 16.3157
369 2 8.77134 2.9745 17.5741
370 4 9.24739 3.41644 14.6258
371 4 10.4114 3.48819 15.8026
372 4 9.20638 4.64096 15.7535
373 13 6.12926 6.14678 19.3525
374 5 9.16432 6.24165 19.3036
375 5 5.82892 3.09565 19.2216
376 5 5.81125 6.15462 -2.4725
377 11 9.60803 3.68092 -2.04603
378 9 8.65919 2.78374 -2.81243
379 2 7.62471 3.06458 -2.58184
380 2 8.822 1.74348 -2.51509
381 2 8.83917 2.89179 20.9134
382 4 9.52282 3.54346 -1.02503
383 4 9.4364 4.68546 -2.22715
384 4 10.5939 3.48196 -2.29484
385 13 5.98137 6.16724 0.684731
386 5 8.96841 6.08995 0.65683
387 5 5.80446 2.99498 0.749096
388 5 5.82733 6.1152 3.71238
389 11 9.51807 3.6642 3.39425
390 9 8.48078 2.68946 3.93527
391 2 8.53738 2.74707 5.02109
392 2 8.69182 1.66974 3.59738
393 2 7.4696 2.98433 3.64588
394 4 10.4627 3.47065 3.77459
395 4 9.29928 4.64066 3.67493
396 4 9.58183 3.64465 2.36292
397 13 5.96058 12.0749 6.93451
398 5 9.12378 12.1311 6.74887
399 5 5.83707 9.05224 6.94692
400 5 6.20963 12.0239 9.99502
401 5 6.19522 15.1695 7.074
402 11 8.61637 9.31289 10.6229
403 9 9.45095 8.59936 9.57085
404 2 9.25888 7.52663 9.65
405 2 10.5082 8.81716 9.74191
406 2 9.15993 8.94126 8.56837
407 4 8.79162 8.95814 11.5818
408 4 7.59972 9.19604 10.4458
409 4 8.79982 10.3314 10.6437
410 12 8.82556 14.5343 9.51481
411 6 8.60792 19.6743 10.1019
412 4 9.05754 14.6972 8.51869
413 4 7.79747 14.6217 9.5883
414 4 9.04641 13.5363 9.69243
415 10 9.55637 15.4775 10.4624
416 3 9.31324 15.1529 11.4798
417 3 10.6301 15.3144 10.3108
418 7 9.11333 17.7327 11.4768
419 6 8.80787 19.099 11.3711
420 8 9.23199 16.9498 10.3196
421 7 9.08013 17.5367 9.05192
422 6 8.75649 18.8971 8.93956
423 1 9.23789 17.2681 12.458
424 1 8.70214 19.6932 12.2738
425 1 9.20328 16.9315 8.15407
426 1 8.35422 20.7262 10.0214
427 1 8.61319 19.3305 7.95331
428 13 5.93361 12.2023 12.9371
429 5 9.13275 12.0921 13.1325
430 5 6.03069 9.12953 13.1732
431 5 5.8948 12.1859 16.1759
432 5 6.30028 15.1337 13.1626
433 11 8.50057 9.65042 16.5582
434 9 9.4525 8.8174 15.7206
435 2 9.19206 8.93089 14.664
436 2 9.33261 7.77215 16.0092
437 2 10.4879 9.13087 15.8862
438 4 7.50957 9.36968 16.4147
439 4 8.56241 10.6589 16.3341
440 4 8.69257 9.54963 17.5701
441 12 9.04053 14.4578 15.7253
442 6 8.26688 19.4774 15.246
443 4 9.27449 14.606 14.7269
444 4 8.00837 14.3918 15.7511
445 4 9.41467 13.5274 15.983
446 10 9.59237 15.5822 16.5892
447 3 9.30256 15.3988 17.6308
448 3 10.684 15.5218 16.5309
449 7 7.75467 17.2703 16.1318
450 6 7.32669 18.5243 15.6719
451 8 9.12186 16.9511 16.1475
452 7 10.0622 17.8943 15.718
453 6 9.63762 19.1639 15.2867
454 1 7.02656 16.5183 16.4372
455 1 6.26169 18.7392 15.6315
456 1 11.1181 17.6285 15.695
457 1 7.93295 20.4452 14.885
458 1 10.3727 19.8827 14.9399
459 13 6.04579 12.2779 19.2915
460 5 9.12976 12.2717 19.0419
461 5 6.22648 9.12929 19.4046
462 5 6.29705 12.2399 -2.42538
463 5 6.04378 15.3048 19.4956
464 11 9.60704 9.48206 21.5741
465 9 8.74412 8.77921 -2.19415
466 2 8.98665 9.1278 -1.18554
467 2 8.91166 7.70294 -2.27562
468 2 7.69329 8.99852 -2.3823
469 4 10.617 9.30505 -3.06844
470 4 9.48889 10.509 21.6054
471 4 9.38741 9.18734 20.6036
472 12 9.26156 14.5881 21.6785
473 6 9.27837 19.5568 -2.71146
474 4 10.1592 14.7141 21.1807
475 4 8.50892 14.8497 21.0243
476 4 9.16461 13.57 -2.96224
477 10 9.19162 15.3578 -1.81708
478 3 8.25475 15.0904 -1.31896
479 3 10.0144 15.0271 -1.18946
480 7 8.08309 17.5839 -1.95399
481 6 8.08401 18.9454 -2.29437
482 8 9.26102 16.8436 -2.02702
483 7 10.4546 17.4498 -2.42868
484 6 10.4621 18.8053 -2.80502
485 1 7.15429 17.0956 -1.66669
486 1 7.15514 19.506 -2.25225
487 1 11.3637 16.8517 -2.51325
488 1 9.27154 20.6018 -3.0019
489 1 11.3876 19.247 21.6351
490 13 6.04251 12.4533 0.660039
491 5 9.1656 12.5706 0.855106
492 5 5.9971 9.24106 0.659643
493 5 5.75066 12.1656 3.7677
494 5 5.84686 15.4852 1.07571
495 11 9.61117 9.80215 3.32336
496 9 8.63164 8.85897 4.01025
497 2 8.80636 7.83569 3.66221
498 2 7.59809 9.14975 3.79451
499 2 8.79947 8.90521 5.09131
500 4 9.47883 9.83294 2.29564
501 4 10.6 9.52424 3.47853
502 4 9.52591 10.7723 3.67492
503 12 8.28438 14.5788 3.83538
504 6 9.63882 19.0751 2.21628
505 4 8.31252 14.6637 2.80527
506 4 7.31651 14.817 4.11524
507 4 8.43647 13.5828 4.06758
508 10 9.3094 15.4746 4.49674
509 3 9.10488 15.5796 5.56306
510 3 10.2711 14.9718 4.42384
511 7 8.27786 17.5762 3.5678
512 6 8.3906 18.7207 2.76814
513 8 9.41236 16.7877 3.79398
514 7 10.6536 17.1391 3.25608
515 6 10.7748 18.2897 2.46788
516 1 7.30282 17.2615 3.94309
517 1 7.49575 19.2851 2.52146
518 1 11.4978 16.4615 3.38364
519 1 9.70908 19.9264 1.54648
520 1 11.727 18.5002 1.98195
521 13 11.9156 0.117533 6.75879
522 5 14.9421 -0.0110842 6.82416
523 5 11.748 -3.0384 6.68386
524 5 11.7457 -0.00390749 9.94752
525 12 15.5559 -2.29978 9.76657
526 6 14.9425 -7.36673 9.27574
527 4 15.6294 -2.32834 8.73702
528 4 16.4833 -2.57888 10.1358
529 4 15.4247 -1.3092 10.0378
530 10 14.4487 -3.19207 10.2933
531 3 14.4248 -3.06379 11.3801
532 3 13.491 -2.84168 9.89901
533 7 14.7857 -5.6036 10.9436
534 6 14.9403 -6.9631 10.6201
535 8 14.6468 -4.64774 9.92691
536 7 14.6819 -5.05179 8.58372
537 6 14.8109 -6.41162 8.25346
538 1 14.7847 -5.27528 11.9843
539 1 15.0583 -7.69681 11.4123
540 1 14.6233 -4.30888 7.79016
541 1 15.0611 -8.41466 9.02137
542 1 14.8344 -6.69941 7.20488
543 13 11.9578 -0.116909 13.1879
544 5 15.1081 0.102533 12.905
545 5 11.8108 -3.0239 13.483
546 5 12.1356 0.00416277 16.3985
547 12 14.6913 -2.57299 15.6109
548 6 14.2945 -7.56402 16.8952
549 4 13.6751 -2.49507 15.7753
550 4 14.8103 -2.99236 14.6693
551 4 15.0627 -1.60746 15.5433
552 10 15.3786 -3.38519 16.7116
553 3 16.4549 -3.32309 16.5244
554 3 15.1884 -2.89411 17.6729
555 7 15.9478 -5.81878 17.0942
556 6 15.622 -7.17876 17.1136
557 8 14.9785 -4.84595 16.7946
558 7 13.6513 -5.23783 16.5815
559 6 13.3061 -6.59398 16.6527
560 1 16.9635 -5.49544 17.3067
561 1 16.3862 -7.91475 17.3447
562 1 12.8771 -4.49399 16.4026
563 1 14.0253 -8.61455 16.9356
564 1 12.2687 -6.87916 16.4978
565 13 11.8954 -0.244571 19.3549
566 5 15.0134 -0.00259818 19.5144
567 5 11.8122 -3.31605 19.6676
568 5 11.7774 -0.0163346 -2.47112
569 12 15.5936 -2.46704 -2.70876
570 6 15.2347 -7.59629 -2.91751
571 4 15.5133 -2.58642 21.0664
572 4 16.593 -2.61734 -2.47838
573 4 15.3997 -1.47225 -2.49688
574 10 14.6606 -3.40838 -1.96164
575 3 14.8543 -3.2683 -0.891632
576 3 13.6304 -3.09381 -2.1658
577 7 16.1449 -5.38712 -2.46629
578 6 16.3398 -6.74306 -2.77969
579 8 14.8525 -4.8646 -2.31733
580 7 13.7461 -5.71507 -2.43866
581 6 13.938 -7.08079 -2.72568
582 1 17.0112 -4.7408 -2.34133
583 1 17.3523 -7.11286 -2.91663
584 1 12.7501 -5.3018 -2.31157
585 1 15.3717 -8.64371 21.6295
586 1 13.0777 -7.7291 -2.84113
587 13 11.8748 -0.129019 0.576796
588 5 15.0896 0.0287521 0.326821
589 5 11.8818 -3.12177 0.729908
590 5 12.0583 0.0600941 3.53384
591 12 15.3399 -2.37547 3.04847
592 6 15.6391 -7.40541 3.13385
593 4 15.1396 -2.60409 2.05667
594 4 16.3674 -2.4429 3.14118
595 4 15.0786 -1.38566 3.19332
596 10 14.6226 -3.3106 4.01309
597 3 14.8574 -3.0143 5.044
598 3 13.5481 -3.15906 3.86018
599 7 16.3254 -5.14636 3.67914
600 6 16.662 -6.4645 3.33624
601 8 14.9769 -4.76266 3.78289
602 7 13.9535 -5.70637 3.60542
603 6 14.2851 -7.03127 3.28356
604 1 17.1108 -4.40505 3.82066
605 1 17.7096 -6.72855 3.20753
606 1 12.9155 -5.383 3.67583
607 1 15.8923 -8.42308 2.85492
608 1 13.4926 -7.7541 3.11457
609 13 12.0211 6.06785 6.79582
610 5 15.2739 6.06747 7.03498
611 5 11.9206 3.07227 6.58183
612 5 12.1895 5.9169 9.91693
613 11 15.7515 3.54506 10.4822
614 9 14.7474 2.74026 9.66274
615 2 14.8294 3.01228 8.60416
616 2 13.7262 2.92693 10.0057
617 2 14.9598 1.6746 9.7799
618 4 15.6919 4.56219 10.2908
619 4 16.735 3.27655 10.2877
620 4 15.611 3.41436 11.5027
621 13 12.2013 6.00636 12.8719
622 5 15.302 6.1823 12.9011
623 5 12.1669 2.95587 13.232
624 5 12.1264 5.98625 16.1107
625 11 14.654 2.57374 16.9427
626 9 15.4615 3.23126 15.8413
627 2 15.1927 2.83143 14.8618
628 2 16.5207 3.04358 16.0382
629 2 15.2842 4.30882 15.8558
630 4 14.7943 1.54877 16.9621
631 4 13.6379 2.73434 16.8295
632 4 14.9119 2.93018 17.8823
633 13 12.2001 6.10843 19.2298
634 5 15.0961 5.94075 19.1183
635 5 11.9637 3.01925 19.3904
636 5 12.152 6.02887 -2.31487
637 11 14.425 2.53554 -2.68194
638 9 15.426 3.43406 -1.97241
639 2 16.4457 3.11183 -2.21863
640 2 15.2695 3.36106 -0.893345
641 2 15.2791 4.47074 -2.29063
642 4 14.5476 1.53709 -2.4291
643 4 14.5047 2.59907 21.0881
644 4 13.4449 2.77663 -2.44185
645 13 12.1834 6.27177 0.708805
646 5 15.181 6.1193 1.11677
647 5 12.0414 3.01738 0.571749
648 5 12.0421 6.28605 3.68417
649 11 14.6995 2.56855 3.09834
650 9 15.4071 3.36147 4.19587
651 2 15.0729 3.03722 5.18777
652 2 15.193 4.42616 4.07004
653 2 16.485 3.20003 4.10383
654 4 13.6696 2.62259 3.18534
655 4 14.9427 1.56243 3.11352
656 4 14.9278 2.92282 2.14937
657 13 12.1401 12.2445 6.88468
658 5 15.2608 12.0724 6.86783
659 5 12.2691 9.09262 6.66621
660 5 11.9726 12.064 9.9307
661 5 12.2057 15.2209 7.20343
662 11 14.743 8.73031 9.41354
663 9 15.7437 9.39033 10.3463
664 2 15.7746 10.4566 10.1064
665 2 16.7356 8.95783 10.1893
666 2 15.4363 9.25004 11.3851
667 4 15 8.86196 8.41411
668 4 13.7861 9.11576 9.52487
669 4 14.6735 7.71031 9.57646
670 12 15.0983 14.4235 9.54325
671 6 14.6551 19.3817 8.80924
672 4 15.3767 14.571 8.55582
673 4 14.0642 14.3837 9.54444
674 4 15.4401 13.4795 9.80614
675 10 15.6578 15.5193 10.4542
676 3 15.2886 15.3616 11.4753
677 3 16.7443 15.3892 10.4682
678 7 13.9941 17.3667 9.99051
679 6 13.6543 18.6006 9.40934
680 8 15.3232 16.913 9.96802
681 7 16.3141 17.684 9.34467
682 6 15.9829 18.9204 8.76383
683 1 13.2116 16.7223 10.3952
684 1 12.6111 18.9042 9.38534
685 1 17.3203 17.2829 9.23906
686 1 14.3902 20.3083 8.31221
687 1 16.7433 19.4827 8.22814
688 13 12.0943 12.3082 12.9394
689 5 15.3167 12.281 12.9313
690 5 12.1765 9.02544 12.8119
691 5 12.262 12.1178 16.0332
692 5 12.1563 15.2031 13.3685
693 11 14.629 8.61906 15.724
694 9 15.518 9.44812 16.6504
695 2 15.3551 9.16085 17.6952
696 2 15.2867 10.5086 16.5221
697 2 16.572 9.28506 16.402
698 4 13.6224 8.73826 15.9503
699 4 14.8362 7.6036 15.7987
700 4 14.7334 8.87826 14.7246
701 12 14.9592 14.6622 15.6528
702 6 15.1761 19.7621 16.106
703 4 15.1331 14.9113 14.6608
704 4 13.9405 14.757 15.8012
705 4 15.1746 13.6516 15.7263
706 10 15.7819 15.5139 16.6087
707 3 15.5659 15.2079 17.637
708 3 16.8271 15.2718 16.4123
709 7 14.2709 17.5155 16.3393
710 6 14.0697 18.8972 16.1915
711 8 15.5724 17.0003 16.4347
712 7 16.6756 17.8619 16.3518
713 6 16.4833 19.24 16.168
714 1 13.4253 16.8322 16.4026
715 1 13.0574 19.286 16.132
716 1 17.6774 17.4381 16.4043
717 1 15.0253 20.8273 15.9617
718 1 17.346 19.8945 16.0837
719 13 12.3388 12.2389 19.062
720 5 15.4275 12.2283 19.4507
721 5 12.1931 9.18613 19.1095
722 5 12.0412 12.1969 -2.64483
723 5 12.4845 15.2658 19.3761
724 11 16.1109 9.66037 -2.56618
725 9 14.9289 8.79882 -2.13234
726 2 14.9364 8.74133 -1.04015
727 2 15.0452 7.79593 -2.55595
728 2 13.9864 9.24391 -2.47133
729 4 17.0212 9.19416 -2.38735
730 4 16.1528 10.5603 -2.05661
731 4 16.1034 9.88729 21.2273
732 12 14.8694 14.6541 -2.72342
733 6 15.2919 19.667 -2.92717
734 4 14.8624 14.7428 21.0495
735 4 13.9246 14.9238 -2.39526
736 4 14.9659 13.6445 -2.51855
737 10 15.9716 15.4906 -2.09216
738 3 15.9168 15.3132 -1.01909
739 3 16.9465 15.1488 -2.44697
740 7 15.6941 17.8804 -1.32834
741 6 15.4455 19.2379 -1.59529
742 8 15.7924 16.9634 -2.38523
743 7 15.6345 17.3974 21.0918
744 6 15.3657 18.7475 20.8211
745 1 15.7868 17.5196 -0.30288
746 1 15.3467 19.9387 -0.771645
747 1 15.6867 16.6854 20.2677
748 1 15.0927 20.7121 21.6645
749 1 15.2225 19.0547 19.788
750 13 12.2479 12.4424 0.652323
751 5 15.4009 12.2026 0.412162
752 5 11.9604 9.30606 0.526751
753 5 12.1452 12.3685 3.77388
754 5 12.8098 15.4011 0.426755
755 11 15.7343 8.61099 4.20472
756 9 14.8676 9.55561 3.3865
757 2 15.1666 9.4905 2.33626
758 2 15.0031 10.5765 3.75047
759 2 13.8159 9.27398 3.48962
760 4 16.7398 8.85937 4.1421
761 4 15.6435 7.62209 3.90434
762 4 15.4942 8.63988 5.21311
763 12 15.5798 14.6341 3.33422
764 6 15.4383 19.7759 3.81704
765 4 16.6102 14.7004 3.39014
766 4 15.3178 14.8726 2.35634
767 4 15.3679 13.625 3.4516
768 10 14.8835 15.5135 4.37793
769 3 13.8189 15.2828 4.2984
770 3 15.2108 15.2039 5.37725
771 7 13.9951 17.8898 4.34523
772 6 14.1719 19.2737 4.16946
773 8 15.0778 17.0087 4.18414
774 7 16.346 17.5193 3.86805
775 6 16.5263 18.8972 3.67809
776 1 13.0274 17.4931 4.64723
777 1 13.3282 19.9455 4.29725
778 1 17.1937 16.841 3.77758
779 1 15.5741 20.8419 3.66493
780 1 17.5124 19.2751 3.42642
781 13 17.991 -0.153017 6.71737
782 5 21.1698 -0.132582 6.51073
783 5 17.9421 -3.14085 6.99072
784 5 18.3543 -0.12427 10.0374
785 12 21.2635 -2.44847 9.31042
786 6 20.9483 -7.50157 9.97023
787 4 20.5177 -2.6422 8.61927
788 4 -2.63765 -2.65712 8.8439
789 4 21.2572 -1.42218 9.45
790 10 21.0817 -3.21718 10.6184
791 3 -2.92047 -2.93027 11.309
792 3 20.1477 -2.87612 11.0701
793 7 -2.58672 -5.47957 10.4983
794 6 -2.63117 -6.87443 10.2909
795 8 21.0394 -4.71993 10.4112
796 7 19.8252 -5.34156 10.0809
797 6 19.7788 -6.72714 9.85223
798 1 -1.6452 -4.98156 10.7272
799 1 -1.71313 -7.4518 10.3563
800 1 18.9212 -4.73311 10.0036
801 1 20.9124 -8.57254 9.796
802 1 18.8312 -7.18898 9.58895
803 13 18.0295 -0.192826 13.2001
804 5 21.4007 -0.0914336 13.2433
805 5 17.4848 -3.11958 13.0627
806 5 17.8455 -0.220814 16.3017
807 12 -2.84784 -2.45067 16.0886
808 6 20.4007 -6.94299 14.5082
809 4 -2.93479 -2.53555 15.0612
810 4 -1.85964 -2.67245 16.3098
811 4 -2.9736 -1.44867 16.3165
812 10 20.9609 -3.35039 16.8314
813 3 21.2336 -3.44765 17.8835
814 3 20.0044 -2.81884 16.8219
815 7 -2.91408 -5.47027 15.7479
816 6 21.6975 -6.57887 14.9117
817 8 20.7799 -4.69824 16.1593
818 7 19.488 -5.0851 15.7721
819 6 19.2922 -6.21605 14.9695
820 1 -1.90911 -5.14229 16.0106
821 1 -2.24323 -7.12401 14.5321
822 1 18.6398 -4.45902 16.0489
823 1 20.2648 -7.76033 13.8061
824 1 18.2892 -6.45175 14.6177
825 13 18.1248 -0.131627 19.214
826 5 21.2736 0.0303678 18.9445
827 5 18.1523 -3.18759 19.628
828 5 18.4049 0.112392 -2.58872
829 12 21.471 -2.30094 -3.07724
830 6 -2.64174 -7.30916 -2.69743
831 4 21.1495 -2.54412 20.7676
832 4 -2.29921 -2.33148 21.6836
833 4 21.2133 -1.31183 -2.91695
834 10 20.9343 -3.23277 -2.01632
835 3 21.2382 -2.85477 -1.03248
836 3 19.8489 -3.1654 -2.09134
837 7 -2.07293 -4.98076 -2.31421
838 6 -1.6782 -6.29158 -2.6071
839 8 21.3668 -4.66699 -2.18447
840 7 20.4092 -5.68064 -2.25944
841 6 20.8032 -7.01028 -2.483
842 1 -1.32236 -4.19407 -2.24653
843 1 -0.62318 -6.49959 -2.7654
844 1 19.3567 -5.41983 -2.15487
845 1 -2.33572 -8.32451 -2.92662
846 1 20.0566 -7.79594 -2.54733
847 13 18.2753 -0.0230362 0.607654
848 5 21.2115 0.120463 0.909298
849 5 17.9937 -3.13861 0.579026
850 5 18.0161 0.0270618 3.65326
851 12 21.6673 -2.42306 3.35796
852 6 20.8582 -7.53184 2.97902
853 4 21.6197 -2.4478 2.32849
854 4 -2.15559 -2.67795 3.59838
855 4 21.5524 -1.433 3.64312
856 10 20.6503 -3.35326 4.01571
857 3 20.7742 -3.23394 5.09515
858 3 19.6486 -2.99283 3.76648
859 7 20.5275 -5.79384 4.63934
860 6 20.5978 -7.1574 4.31208
861 8 20.7793 -4.81633 3.65638
862 7 21.0611 -5.19478 2.3375
863 6 21.0783 -6.55328 1.99364
864 1 20.2959 -5.47035 5.65555
865 1 20.4253 -7.91283 5.07248
866 1 21.208 -4.4424 1.56374
867 1 20.8896 -8.58047 2.70632
868 1 21.2682 -6.83084 0.958363
869 13 18.4144 5.96695 7.0431
870 5 21.4251 6.04849 6.86018
871 5 18.2708 2.84946 7.07047
872 5 18.5464 5.96478 10.0602
873 11 20.8959 2.5087 10.6912
874 9 -3.07609 3.17318 9.59832
875 2 21.3961 2.84576 8.60511
876 2 -2.02551 2.90598 9.73854
877 2 21.626 4.25788 9.69139
878 4 21.0484 1.48711 10.7276
879 4 19.8787 2.63878 10.5415
880 4 21.1052 2.88377 11.6364
881 13 18.3544 6.21381 13.1533
882 5 21.4862 5.75651 12.9053
883 5 18.2441 2.94715 13.1485
884 5 18.1193 6.18932 16.1853
885 11 -2.79577 2.59954 15.6398
886 9 20.9355 3.3541 16.4146
887 2 21.1098 3.20805 17.4836
888 2 19.9366 2.9832 16.1572
889 2 21.02 4.41988 16.1827
890 4 -2.88871 1.57639 15.7597
891 4 -1.83864 2.84691 15.9633
892 4 -2.84088 2.79666 14.623
893 13 18.1958 6.03984 19.1976
894 5 21.3496 5.98211 19.3819
895 5 18.09 2.93197 19.182
896 5 18.2102 6.14051 -2.5287
897 11 20.8941 2.72584 21.5706
898 9 21.6333 3.55023 -2.18688
899 2 21.3996 3.19632 -1.17502
900 2 21.3588 4.60175 -2.2899
901 2 -2.09279 3.43903 -2.36472
902 4 19.8648 2.80756 21.6595
903 4 21.1303 1.72126 21.6395
904 4 21.138 3.02235 20.6049
905 13 18.3163 6.03533 0.801439
906 5 21.4804 6.36621 0.582087
907 5 18.3222 3.0978 0.807367
908 5 18.394 6.01193 3.85124
909 11 20.645 2.5042 4.04018
910 9 21.6689 3.41004 3.36213
911 2 -2.11297 3.10065 3.62774
912 2 21.5024 4.44503 3.67568
913 2 21.5508 3.34418 2.27541
914 4 20.6913 2.56496 5.07429
915 4 20.7851 1.50716 3.79382
916 4 19.6748 2.74344 3.76046
917 13 18.3686 12.0758 6.8274
918 5 21.464 12.0372 6.49266
919 5 18.0637 9.06241 6.94442
920 5 18.5489 12.4202 9.92956
921 5 18.4188 15.1171 6.63564
922 11 -2.84379 8.38383 10.3389
923 9 21.091 9.36105 9.5533
924 2 21.298 9.26016 8.48184
925 2 21.315 10.3786 9.88458
926 2 20.0339 9.15128 9.74739
927 4 -1.82951 8.59002 10.2483
928 4 -2.98779 7.4007 10.0382
929 4 -3.0659 8.41436 11.3515
930 12 21.5351 14.3745 9.23329
931 6 21.337 19.4504 9.44271
932 4 -2.47216 14.5276 8.60058
933 4 20.6741 14.5097 8.67214
934 4 21.5572 13.3685 9.483
935 10 21.59 15.2628 10.4666
936 3 20.7473 14.9888 11.106
937 3 -2.3036 15.0109 11.0138
938 7 20.2741 17.3498 10.0512
939 6 20.1723 18.7093 9.71889
940 8 21.5278 16.7371 10.1384
941 7 -2.10661 17.4749 9.88094
942 6 -2.20636 18.833 9.51745
943 1 19.3791 16.758 10.2455
944 1 19.1919 19.1729 9.65207
945 1 -1.13293 16.9876 9.94482
946 1 21.2564 20.496 9.16434
947 1 -1.30482 19.3879 9.27879
948 13 18.41 12.4099 13.0443
949 5 21.5903 12.3712 13.1955
950 5 18.7353 9.157 12.9569
951 5 18.3466 12.2161 16.1237
952 5 18.329 15.4875 13.4257
953 11 -2.75497 9.64024 15.6549
954 9 21.0738 8.68147 16.3373
955 2 21.2553 7.65545 15.9977
956 2 20.047 8.98572 16.1133
957 2 21.227 8.74117 17.4187
958 4 -2.89292 9.66596 14.6282
959 4 -1.76288 9.39132 15.8279
960 4 -2.86906 10.6141 15.9936
961 12 20.9676 14.7318 15.927
962 6 -2.15798 19.386 14.7377
963 4 20.9883 14.8442 14.8983
964 4 20.0121 14.9952 16.2335
965 4 21.0542 13.7162 16.1111
966 10 -2.72839 15.5326 16.6288
967 3 -2.94144 15.5508 17.7044
968 3 -1.79729 14.9714 16.5005
969 7 21.1654 17.7509 15.7829
970 6 21.3452 18.9605 15.0924
971 8 -2.52623 16.9409 16.0903
972 7 -1.23292 17.3977 15.7972
973 6 -1.04564 18.6109 15.1077
974 1 20.1623 17.3854 16.0076
975 1 20.4756 19.5353 14.7859
976 1 -0.375236 16.7641 16.0247