ITEM: TIMESTEP
0
ITEM: NUMBER OF ATOMS
1040
ITEM: BOX BOUNDS pp pp pp
-3.1000000000000001e+00 2.1700000000000003e+01
-6.9095259441535461e+01 8.1495259441535467e+01
-3.1000000000000001e+00 2.1700000000000003e+01
ITEM: ATOMS id type x y z
1 13 0 0 0
2 5 3.1 0 0
3 5 0 -3.1 0
4 5 0 0 3.1
5 12 3.1 -3.1 3.1
6 6 2.99082 -8.04624 3.3452
7 4 2.58236 -3.34466 2.25429
8 4 4.07951 -3.33215 2.928
9 4 3.02595 -2.09222 3.24568
10 10 2.57328 -3.90274 4.28293
11 3 3.16018 -3.59036 5.14553
12 3 1.53876 -3.5919 4.42182
13 7 3.8755 -6.03973 4.32192
14 6 4.01665 -7.37968 3.99989
15 8 2.70596 -5.36304 3.98642
16 7 1.67589 -6.03808 3.33707
17 6 1.82014 -7.37795 3.0163
18 1 4.67105 -5.52844 4.85551
19 1 4.92249 -7.90717 4.2704
20 1 0.748577 -5.52561 3.09925
21 1 3.1 -9.09526 3.1
22 1 1.01436 -7.90382 2.5202
23 13 0 0 6.2
24 5 3.1 0 6.2
25 5 0 -3.1 6.2
26 5 0 0 9.3
27 12 3.1 -3.1 9.3
28 6 2.99082 -8.04624 9.5452
29 4 2.58236 -3.34466 8.45429
30 4 4.07951 -3.33215 9.128
31 4 3.02595 -2.09222 9.44568
32 10 2.57328 -3.90274 10.4829
33 3 3.16018 -3.59036 11.3455
34 3 1.53876 -3.5919 10.6218
35 7 3.8755 -6.03973 10.5219
36 6 4.01665 -7.37968 10.1999
37 8 2.70596 -5.36304 10.1864
38 7 1.67589 -6.03808 9.53707
39 6 1.82014 -7.37795 9.2163
40 1 4.67105 -5.52844 11.0555
41 1 4.92249 -7.90717 10.4704
42 1 0.748577 -5.52561 9.29925
43 1 3.1 -9.09526 9.3
44 1 1.01436 -7.90382 8.7202
45 13 0 0 12.4
46 5 3.1 0 12.4
47 5 0 -3.1 12.4
48 5 0 0 15.5
49 12 3.1 -3.1 15.5
50 6 2.99082 -8.04624 15.7452
51 4 2.58236 -3.34466 14.6543
52 4 4.07951 -3.33215 15.328
53 4 3.02595 -2.09222 15.6457
54 10 2.57328 -3.90274 16.6829
55 3 3.16018 -3.59036 17.5455
56 3 1.53876 -3.5919 16.8218
57 7 3.8755 -6.03973 16.7219
58 6 4.01665 -7.37968 16.3999
59 8 2.70596 -5.36304 16.3864
60 7 1.67589 -6.03808 15.7371
61 6 1.82014 -7.37795 15.4163
62 1 4.67105 -5.52844 17.2555
63 1 4.92249 -7.90717 16.6704
64 1 0.748577 -5.52561 15.4993
65 1 3.1 -9.09526 15.5
66 1 1.01436 -7.90382 14.9202
67 13 0 0 18.6
68 5 3.1 0 18.6
69 5 0 -3.1 18.6
70 5 0 0 -3.1
71 12 3.1 -3.1 -3.1
72 6 2.99082 -8.04624 -2.8548
73 4 2.58236 -3.34466 20.8543
74 4 4.07951 -3.33215 21.528
75 4 3.02595 -2.09222 -2.95432
76 10 2.57328 -3.90274 -1.91707
77 3 3.16018 -3.59036 -1.05447
78 3 1.53876 -3.5919 -1.77818
79 7 3.8755 -6.03973 -1.87808
80 6 4.01665 -7.37968 -2.20011
81 8 2.70596 -5.36304 -2.21358
82 7 1.67589 -6.03808 -2.86293
83 6 1.82014 -7.37795 21.6163
84 1 4.67105 -5.52844 -1.34449
85 1 4.92249 -7.90717 -1.9296
86 1 0.748577 -5.52561 21.6993
87 1 3.1 -9.09526 21.7
88 1 1.01436 -7.90382 21.1202
89 13 0 6.2 0
90 5 3.1 6.2 0
91 5 0 3.1 0
92 5 0 6.2 3.1
93 11 2.52778 2.80197 2.7376
94 9 3.68866 3.40656 3.47288
95 2 3.36542 4.34588 3.91364
96 2 4.49412 3.57716 2.76351
97 2 4.00492 2.71251 4.24706
98 4 2.19568 3.41862 1.9943
99 4 1.74086 2.62555 3.36424
100 4 2.78256 1.91175 2.30678
101 13 0 6.2 6.2
102 5 3.1 6.2 6.2
103 5 0 3.1 6.2
104 5 0 6.2 9.3
105 11 3.59449 2.96337 9.8333
106 9 2.59127 3.24049 8.75136
107 2 3.09172 3.16271 7.78981
108 2 2.19845 4.24355 8.89504
109 2 1.7937 2.50598 8.82514
110 4 4.36527 3.63287 9.80698
111 4 3.99627 2.02922 9.73855
112 4 3.16883 3.02181 10.7598
113 13 0 6.2 12.4
114 5 3.1 6.2 12.4
115 5 0 3.1 12.4
116 5 0 6.2 15.5
117 11 3.46156 2.85725 16.0983
118 9 2.72802 3.34966 14.8845
119 2 3.42311 3.37625 14.0495
120 2 2.34692 4.34578 15.0933
121 2 1.90955 2.66579 14.6759
122 4 4.24139 3.47195 16.3371
123 4 3.84303 1.92169 15.9491
124 4 2.84642 2.81163 16.9123
125 13 0 6.2 18.6
126 5 3.1 6.2 18.6
127 5 0 3.1 18.6
128 5 0 6.2 -3.1
129 11 3.20949 3.58195 21.1492
130 9 2.9873 2.60421 -2.5334
131 2 3.33807 3.05347 -1.60807
132 2 3.5471 1.69874 -2.75207
133 2 1.92406 2.38791 -2.47161
134 4 4.19885 3.8147 21.0491
135 4 2.70405 4.45444 21.3115
136 4 2.89109 3.20459 20.2552
137 13 0 12.4 0
138 5 3.1 12.4 0
139 5 0 9.3 0
140 5 0 12.4 3.1
141 5 0 15.5 0
142 11 2.56961 9.69712 2.77049
143 9 3.64568 8.89152 3.439
144 2 4.3095 8.50065 2.67241
145 2 3.17679 8.07802 3.98621
146 2 4.19074 9.5417 4.11815
147 4 2.02522 9.12602 2.12201
148 4 2.96277 10.4751 2.23832
149 4 1.91969 10.0899 3.45341
150 12 3.1 15.5 3.1
151 6 3.20918 20.4462 3.3452
152 4 3.61764 15.7447 2.25429
153 4 2.12049 15.7322 2.928
154 4 3.17405 14.4922 3.24568
155 10 3.62672 16.3027 4.28293
156 3 3.03982 15.9904 5.14553
157 3 4.66124 15.9919 4.42182
158 7 2.3245 18.4397 4.32192
159 6 2.18335 19.7797 3.99989
160 8 3.49404 17.763 3.98642
161 7 4.52411 18.4381 3.33707
162 6 4.37986 19.7779 3.0163
163 1 1.52895 17.9284 4.85551
164 1 1.27751 20.3072 4.2704
165 1 5.45142 17.9256 3.09925
166 1 3.1 21.4953 3.1
167 1 5.18564 20.3038 2.5202
168 13 0 12.4 6.2
169 5 3.1 12.4 6.2
170 5 0 9.3 6.2
171 5 0 12.4 9.3
172 5 0 15.5 6.2
173 11 2.47469 9.35123 9.69238
174 9 3.74328 9.24722 8.89634
175 2 4.58471 9.28608 9.58305
176 2 3.78218 10.0811 8.20042
177 2 3.73545 8.30318 8.35802
178 4 2.43393 10.2274 10.2155
179 4 2.3938 8.58784 10.366
180 4 1.65195 9.31596 9.08834
181 12 3.1 15.5 9.3
182 6 3.20918 20.4462 9.5452
183 4 3.61764 15.7447 8.45429
184 4 2.12049 15.7322 9.128
185 4 3.17405 14.4922 9.44568
186 10 3.62672 16.3027 10.4829
187 3 3.03982 15.9904 11.3455
188 3 4.66124 15.9919 10.6218
189 7 2.3245 18.4397 10.5219
190 6 2.18335 19.7797 10.1999
191 8 3.49404 17.763 10.1864
192 7 4.52411 18.4381 9.53707
193 6 4.37986 19.7779 9.2163
194 1 1.52895 17.9284 11.0555
195 1 1.27751 20.3072 10.4704
196 1 5.45142 17.9256 9.29925
197 1 3.1 21.4953 9.3
198 1 5.18564 20.3038 8.7202
199 13 0 12.4 12.4
200 5 3.1 12.4 12.4
201 5 0 9.3 12.4
202 5 0 12.4 15.5
203 5 0 15.5 12.4
204 11 3.3925 9.93247 15.749
205 9 2.79906 8.64938 15.2437
206 2 1.85705 8.47964 15.7584
207 2 3.49641 7.84225 15.4519
208 2 2.63565 8.7437 14.1735
209 4 3.56811 9.89122 16.7543
210 4 2.76957 10.7237 15.5787
211 4 4.28165 10.1377 15.2904
212 12 3.1 15.5 15.5
213 6 3.20918 20.4462 15.7452
214 4 3.61764 15.7447 14.6543
215 4 2.12049 15.7322 15.328
216 4 3.17405 14.4922 15.6457
217 10 3.62672 16.3027 16.6829
218 3 3.03982 15.9904 17.5455
219 3 4.66124 15.9919 16.8218
220 7 2.3245 18.4397 16.7219
221 6 2.18335 19.7797 16.3999
222 8 3.49404 17.763 16.3864
223 7 4.52411 18.4381 15.7371
224 6 4.37986 19.7779 15.4163
225 1 1.52895 17.9284 17.2555
226 1 1.27751 20.3072 16.6704
227 1 5.45142 17.9256 15.4993
228 1 3.1 21.4953 15.5
229 1 5.18564 20.3038 14.9202
230 13 0 12.4 18.6
231 5 3.1 12.4 18.6
232 5 0 9.3 18.6
233 5 0 12.4 -3.1
234 5 0 15.5 18.6
235 11 3.17611 9.8129 21.172
236 9 3.02163 8.77235 -2.55687
237 2 3.00497 9.27169 -1.59174
238 2 3.86477 8.08924 -2.61657
239 2 2.08907 8.24045 -2.72564
240 4 4.0437 10.3394 21.2865
241 4 2.40586 10.4833 21.1899
242 4 3.1939 9.39065 20.2423
243 12 3.1 15.5 -3.1
244 6 3.20918 20.4462 -2.8548
245 4 3.61764 15.7447 20.8543
246 4 2.12049 15.7322 21.528
247 4 3.17405 14.4922 -2.95432
248 10 3.62672 16.3027 -1.91707
249 3 3.03982 15.9904 -1.05447
250 3 4.66124 15.9919 -1.77818
251 7 2.3245 18.4397 -1.87808
252 6 2.18335 19.7797 -2.20011
253 8 3.49404 17.763 -2.21358
254 7 4.52411 18.4381 -2.86293
255 6 4.37986 19.7779 21.6163
256 1 1.52895 17.9284 -1.34449
257 1 1.27751 20.3072 -1.9296
258 1 5.45142 17.9256 21.6993
259 1 3.1 21.4953 21.7
260 1 5.18564 20.3038 21.1202
261 13 6.2 0 0
262 5 9.3 0 0
263 5 6.2 -3.1 0
264 5 6.2 0 3.1
265 12 9.3 -3.1 3.1
266 6 9.19082 -8.04624 3.3452
267 4 8.78236 -3.34466 2.25429
268 4 10.2795 -3.33215 2.928
269 4 9.22595 -2.09222 3.24568
270 10 8.77328 -3.90274 4.28293
271 3 9.36018 -3.59036 5.14553
272 3 7.73876 -3.5919 4.42182
273 7 10.0755 -6.03973 4.32192
274 6 10.2167 -7.37968 3.99989
275 8 8.90596 -5.36304 3.98642
276 7 7.87589 -6.03808 3.33707
277 6 8.02014 -7.37795 3.0163
278 1 10.8711 -5.52844 4.85551
279 1 11.1225 -7.90717 4.2704
280 1 6.94858 -5.52561 3.09925
281 1 9.3 -9.09526 3.1
282 1 7.21436 -7.90382 2.5202
283 13 6.2 0 6.2
284 5 9.3 0 6.2
285 5 6.2 -3.1 6.2
286 5 6.2 0 9.3
287 12 9.3 -3.1 9.3
288 6 9.19082 -8.04624 9.5452
289 4 8.78236 -3.34466 8.45429
290 4 10.2795 -3.33215 9.128
291 4 9.22595 -2.09222 9.44568
292 10 8.77328 -3.90274 10.4829
293 3 9.36018 -3.59036 11.3455
294 3 7.73876 -3.5919 10.6218
295 7 10.0755 -6.03973 10.5219
296 6 10.2167 -7.37968 10.1999
297 8 8.90596 -5.36304 10.1864
298 7 7.87589 -6.03808 9.53707
299 6 8.02014 -7.37795 9.2163
300 1 10.8711 -5.52844 11.0555
301 1 11.1225 -7.90717 10.4704
302 1 6.94858 -5.52561 9.29925
303 1 9.3 -9.09526 9.3
304 1 7.21436 -7.90382 8.7202
305 13 6.2 0 12.4
306 5 9.3 0 12.4
307 5 6.2 -3.1 12.4
308 5 6.2 0 15.5
309 12 9.3 -3.1 15.5
310 6 9.19082 -8.04624 15.7452
311 4 8.78236 -3.34466 14.6543
312 4 10.2795 -3.33215 15.328
313 4 9.22595 -2.09222 15.6457
314 10 8.77328 -3.90274 16.6829
315 3 9.36018 -3.59036 17.5455
316 3 7.73876 -3.5919 16.8218
317 7 10.0755 -6.03973 16.7219
318 6 10.2167 -7.37968 16.3999
319 8 8.90596 -5.36304 16.3864
320 7 7.87589 -6.03808 15.7371
321 6 8.02014 -7.37795 15.4163
322 1 10.8711 -5.52844 17.2555
323 1 11.1225 -7.90717 16.6704
324 1 6.94858 -5.52561 15.4993
325 1 9.3 -9.09526 15.5
326 1 7.21436 -7.90382 14.9202
327 13 6.2 0 18.6
328 5 9.3 0 18.6
329 5 6.2 -3.1 18.6
330 5 6.2 0 -3.1
331 12 9.3 -3.1 -3.1
332 6 9.19082 -8.04624 -2.8548
333 4 8.78236 -3.34466 20.8543
334 4 10.2795 -3.33215 21.528
335 4 9.22595 -2.09222 -2.95432
336 10 8.77328 -3.90274 -1.91707
337 3 9.36018 -3.59036 -1.05447
338 3 7.73876 -3.5919 -1.77818
339 7 10.0755 -6.03973 -1.87808
340 6 10.2167 -7.37968 -2.20011
341 8 8.90596 -5.36304 -2.21358
342 7 7.87589 -6.03808 -2.86293
343 6 8.02014 -7.37795 21.6163
344 1 10.8711 -5.52844 -1.34449
345 1 11.1225 -7.90717 -1.9296
346 1 6.94858 -5.52561 21.6993
347 1 9.3 -9.09526 21.7
348 1 7.21436 -7.90382 21.1202
349 13 6.2 6.2 0
350 5 9.3 6.2 0
351 5 6.2 3.1 0
352 5 6.2 6.2 3.1
353 11 9.87314 2.6322 3.08357
354 9 8.7104 3.58129 3.11685
355 2 8.92907 4.36849 3.83349
356 2 7.82404 3.02915 3.41782
357 2 8.57834 3.99886 2.12223
358 4 10.0354 2.20967 3.99908
359 4 10.7342 3.10731 2.80806
360 4 9.71538 1.87302 2.4189
361 13 6.2 6.2 6.2
362 5 9.3 6.2 6.2
363 5 6.2 3.1 6.2
364 5 6.2 6.2 9.3
365 11 9.388 3.38431 8.62249
366 9 9.20952 2.80757 9.99702
367 2 9.89499 1.97202 10.1114
368 2 8.18095 2.47161 10.0983
369 2 9.42972 3.58231 10.7266
370 4 9.18811 2.69169 7.89905
371 4 10.3442 3.71227 8.47727
372 4 8.76447 4.17823 8.4678
373 13 6.2 6.2 12.4
374 5 9.3 6.2 12.4
375 5 6.2 3.1 12.4
376 5 6.2 6.2 15.5
377 11 9.58972 3.18225 16.1759
378 9 9.00201 3.0154 14.8046
379 2 8.58576 3.9688 14.4902
380 2 8.22349 2.25871 14.8536
381 2 9.79244 2.70388 14.1269
382 4 8.88138 3.47246 16.852
383 4 10.3271 3.88884 16.1819
384 4 9.99809 2.30968 16.5149
385 13 6.2 6.2 18.6
386 5 9.3 6.2 18.6
387 5 6.2 3.1 18.6
388 5 6.2 6.2 -3.1
389 11 9.18773 3.4933 21.0833
390 9 9.41543 2.6954 -2.46555
391 2 9.92767 3.32593 -1.74366
392 2 10.0251 1.83096 -2.71489
393 2 8.45031 2.38049 -2.0777
394 4 10.0699 3.81017 20.6778
395 4 8.6199 4.32187 21.2679
396 4 8.70399 2.94187 20.3727
397 13 6.2 12.4 0
398 5 9.3 12.4 0
399 5 6.2 9.3 0
400 5 6.2 12.4 3.1
401 5 6.2 15.5 0
402 11 8.96305 9.92554 3.30677
403 9 9.64661 8.65647 2.88721
404 2 9.01489 7.81706 3.16542
405 2 10.6043 8.59657 3.39742
406 2 9.79086 8.68297 1.81038
407 4 8.808 9.94906 4.31595
408 4 8.053 10.0258 2.85423
409 4 9.51928 10.7465 3.06261
410 12 9.3 15.5 3.1
411 6 9.40918 20.4462 3.3452
412 4 9.81764 15.7447 2.25429
413 4 8.32049 15.7322 2.928
414 4 9.37405 14.4922 3.24568
415 10 9.82672 16.3027 4.28293
416 3 9.23982 15.9904 5.14553
417 3 10.8612 15.9919 4.42182
418 7 8.5245 18.4397 4.32192
419 6 8.38335 19.7797 3.99989
420 8 9.69404 17.763 3.98642
421 7 10.7241 18.4381 3.33707
422 6 10.5799 19.7779 3.0163
423 1 7.72895 17.9284 4.85551
424 1 7.47751 20.3072 4.2704
425 1 11.6514 17.9256 3.09925
426 1 9.3 21.4953 3.1
427 1 11.3856 20.3038 2.5202
428 13 6.2 12.4 6.2
429 5 9.3 12.4 6.2
430 5 6.2 9.3 6.2
431 5 6.2 12.4 9.3
432 5 6.2 15.5 6.2
433 11 9.36551 9.04132 9.99021
434 9 9.23263 9.56618 8.58996
435 2 8.21609 9.92488 8.45186
436 2 9.44717 8.75672 7.89726
437 2 9.9432 10.3778 8.45768
438 4 8.71724 8.27119 10.1625
439 4 9.16914 9.76779 10.6807
440 4 10.309 8.69416 10.1699
441 12 9.3 15.5 9.3
442 6 9.40918 20.4462 9.5452
443 4 9.81764 15.7447 8.45429
444 4 8.32049 15.7322 9.128
445 4 9.37405 14.4922 9.44568
446 10 9.82672 16.3027 10.4829
447 3 9.23982 15.9904 11.3455
448 3 10.8612 15.9919 10.6218
449 7 8.5245 18.4397 10.5219
450 6 8.38335 19.7797 10.1999
451 8 9.69404 17.763 10.1864
452 7 10.7241 18.4381 9.53707
453 6 10.5799 19.7779 9.2163
454 1 7.72895 17.9284 11.0555
455 1 7.47751 20.3072 10.4704
456 1 11.6514 17.9256 9.29925
457 1 9.3 21.4953 9.3
458 1 11.3856 20.3038 8.7202
459 13 6.2 12.4 12.4
460 5 9.3 12.4 12.4
461 5 6.2 9.3 12.4
462 5 6.2 12.4 15.5
463 5 6.2 15.5 12.4
464 11 9.84507 9.29052 14.9996
465 9 8.73927 9.30982 16.0148
466 2 9.10249 8.84632 16.9282
467 2 7.89586 8.7527 15.6156
468 2 8.45887 10.3435 16.1988
469 4 10.1419 8.33602 14.7902
470 4 10.665 9.80078 15.3319
471 4 9.55154 9.72028 14.1209
472 12 9.3 15.5 15.5
473 6 9.40918 20.4462 15.7452
474 4 9.81764 15.7447 14.6543
475 4 8.32049 15.7322 15.328
476 4 9.37405 14.4922 15.6457
477 10 9.82672 16.3027 16.6829
478 3 9.23982 15.9904 17.5455
479 3 10.8612 15.9919 16.8218
480 7 8.5245 18.4397 16.7219
481 6 8.38335 19.7797 16.3999
482 8 9.69404 17.763 16.3864
483 7 10.7241 18.4381 15.7371
484 6 10.5799 19.7779 15.4163
485 1 7.72895 17.9284 17.2555
486 1 7.47751 20.3072 16.6704
487 1 11.6514 17.9256 15.4993
488 1 9.3 21.4953 15.5
489 1 11.3856 20.3038 14.9202
490 13 6.2 12.4 18.6
491 5 9.3 12.4 18.6
492 5 6.2 9.3 18.6
493 5 6.2 12.4 -3.1
494 5 6.2 15.5 18.6
495 11 10.0043 9.23896 21.4812
496 9 8.5755 9.36277 -2.87483
497 2 8.0129 8.53045 21.5107
498 2 8.18192 10.3072 21.5588
499 2 8.549 9.33592 -1.78871
500 4 10.0814 9.26259 20.4631
501 4 10.4188 8.36167 -3.00013
502 4 10.5762 10.0005 -2.95005
503 12 9.3 15.5 -3.1
504 6 9.40918 20.4462 -2.8548
505 4 9.81764 15.7447 20.8543
506 4 8.32049 15.7322 21.528
507 4 9.37405 14.4922 -2.95432
508 10 9.82672 16.3027 -1.91707
509 3 9.23982 15.9904 -1.05447
510 3 10.8612 15.9919 -1.77818
511 7 8.5245 18.4397 -1.87808
512 6 8.38335 19.7797 -2.20011
513 8 9.69404 17.763 -2.21358
514 7 10.7241 18.4381 -2.86293
515 6 10.5799 19.7779 21.6163
516 1 7.72895 17.9284 -1.34449
517 1 7.47751 20.3072 -1.9296
518 1 11.6514 17.9256 21.6993
519 1 9.3 21.4953 21.7
520 1 11.3856 20.3038 21.1202
521 13 12.4 0 0
522 5 15.5 0 0
523 5 12.4 -3.1 0
524 5 12.4 0 3.1
525 12 15.5 -3.1 3.1
526 6 15.3908 -8.04624 3.3452
527 4 14.9824 -3.34466 2.25429
528 4 16.4795 -3.33215 2.928
529 4 15.4259 -2.09222 3.24568
530 10 14.9733 -3.90274 4.28293
531 3 15.5602 -3.59036 5.14553
532 3 13.9388 -3.5919 4.42182
533 7 16.2755 -6.03973 4.32192
534 6 16.4167 -7.37968 3.99989
535 8 15.106 -5.36304 3.98642
536 7 14.0759 -6.03808 3.33707
537 6 14.2201 -7.37795 3.0163
538 1 17.0711 -5.52844 4.85551
539 1 17.3225 -7.90717 4.2704
540 1 13.1486 -5.52561 3.09925
541 1 15.5 -9.09526 3.1
542 1 13.4144 -7.90382 2.5202
543 13 12.4 0 6.2
544 5 15.5 0 6.2
545 5 12.4 -3.1 6.2
546 5 12.4 0 9.3
547 12 15.5 -3.1 9.3
548 6 15.3908 -8.04624 9.5452
549 4 14.9824 -3.34466 8.45429
550 4 16.4795 -3.33215 9.128
551 4 15.4259 -2.09222 9.44568
552 10 14.9733 -3.90274 10.4829
553 3 15.5602 -3.59036 11.3455
554 3 13.9388 -3.5919 10.6218
555 7 16.2755 -6.03973 10.5219
556 6 16.4167 -7.37968 10.1999
557 8 15.106 -5.36304 10.1864
558 7 14.0759 -6.03808 9.53707
559 6 14.2201 -7.37795 9.2163
560 1 17.0711 -5.52844 11.0555
561 1 17.3225 -7.90717 10.4704
562 1 13.1486 -5.52561 9.29925
563 1 15.5 -9.09526 9.3
564 1 13.4144 -7.90382 8.7202
565 13 12.4 0 12.4
566 5 15.5 0 12.4
567 5 12.4 -3.1 12.4
568 5 12.4 0 15.5
569 12 15.5 -3.1 15.5
570 6 15.3908 -8.04624 15.7452
571 4 14.9824 -3.34466 14.6543
572 4 16.4795 -3.33215 15.328
573 4 15.4259 -2.09222 15.6457
574 10 14.9733 -3.90274 16.6829
575 3 15.5602 -3.59036 17.5455
576 3 13.9388 -3.5919 16.8218
577 7 16.2755 -6.03973 16.7219
578 6 16.4167 -7.37968 16.3999
579 8 15.106 -5.36304 16.3864
580 7 14.0759 -6.03808 15.7371
581 6 14.2201 -7.37795 15.4163
582 1 17.0711 -5.52844 17.2555
583 1 17.3225 -7.90717 16.6704
584 1 13.1486 -5.52561 15.4993
585 1 15.5 -9.09526 15.5
586 1 13.4144 -7.90382 14.9202
587 13 12.4 0 18.6
588 5 15.5 0 18.6
589 5 12.4 -3.1 18.6
590 5 12.4 0 -3.1
591 12 15.5 -3.1 -3.1
592 6 15.3908 -8.04624 -2.8548
593 4 14.9824 -3.34466 20.8543
594 4 16.4795 -3.33215 21.528
595 4 15.4259 -2.09222 -2.95432
596 10 14.9733 -3.90274 -1.91707
597 3 15.5602 -3.59036 -1.05447
598 3 13.9388 -3.5919 -1.77818
599 7 16.2755 -6.03973 -1.87808
600 6 16.4167 -7.37968 -2.20011
601 8 15.106 -5.36304 -2.21358
602 7 14.0759 -6.03808 -2.86293
603 6 14.2201 -7.37795 21.6163
604 1 17.0711 -5.52844 -1.34449
605 1 17.3225 -7.90717 -1.9296
606 1 13.1486 -5.52561 21.6993
607 1 15.5 -9.09526 21.7
608 1 13.4144 -7.90382 21.1202
609 13 12.4 6.2 0
610 5 15.5 6.2 0
611 5 12.4 3.1 0
612 5 12.4 6.2 3.1
613 11 15.7028 3.81146 3.08247
614 9 15.2915 2.36806 3.11804
615 2 15.1974 2.01167 2.09568
616 2 14.3384 2.29447 3.63512
617 2 16.0555 1.80537 3.64781
618 4 15.0113 4.38394 2.59541
619 4 16.5953 3.93283 2.60117
620 4 15.8077 4.19219 4.0243
621 13 12.4 6.2 6.2
622 5 15.5 6.2 6.2
623 5 12.4 3.1 6.2
624 5 12.4 6.2 9.3
625 11 15.213 2.42931 9.17583
626 9 15.7951 3.79 9.42777
627 2 15.7105 4.37486 8.51571
628 2 16.8386 3.67148 9.70746
629 2 15.2369 4.25945 10.2334
630 4 15.7089 1.94507 8.4257
631 4 14.23 2.4888 8.90522
632 4 15.2669 1.84102 10.0089
633 13 12.4 6.2 12.4
634 5 15.5 6.2 12.4
635 5 12.4 3.1 12.4
636 5 12.4 6.2 15.5
637 11 15.4474 2.75797 14.8459
638 9 15.5541 3.45187 16.1729
639 2 15.8137 4.49246 15.9973
640 2 16.3279 2.96064 16.7569
641 2 14.5941 3.3797 16.6772
642 4 16.33 2.79621 14.3335
643 4 14.7321 3.18774 14.2571
644 4 15.2008 1.7734 14.9591
645 13 12.4 6.2 18.6
646 5 15.5 6.2 18.6
647 5 12.4 3.1 18.6
648 5 12.4 6.2 -3.1
649 11 15.2191 3.16876 -2.41885
650 9 15.7889 3.02924 20.9992
651 2 16.3722 2.11318 20.9583
652 2 16.4202 3.89081 20.7987
653 2 14.9663 2.98786 20.2903
654 4 15.9572 3.21544 -1.71453
655 4 14.6185 2.37746 -2.18176
656 4 14.6575 4.01727 -2.33142
657 13 12.4 12.4 0
658 5 15.5 12.4 0
659 5 12.4 9.3 0
660 5 12.4 12.4 3.1
661 5 12.4 15.5 0
662 11 15.3604 8.83978 2.53758
663 9 15.6435 9.77345 3.67861
664 2 15.6472 10.7913 3.29771
665 2 16.6142 9.52102 4.09711
666 2 14.864 9.65016 4.42577
667 4 16.071 8.91689 1.80808
668 4 14.4562 9.04051 2.10737
669 4 15.3435 7.86689 2.84777
670 12 15.5 15.5 3.1
671 6 15.6092 20.4462 3.3452
672 4 16.0176 15.7447 2.25429
673 4 14.5205 15.7322 2.928
674 4 15.5741 14.4922 3.24568
675 10 16.0267 16.3027 4.28293
676 3 15.4398 15.9904 5.14553
677 3 17.0612 15.9919 4.42182
678 7 14.7245 18.4397 4.32192
679 6 14.5833 19.7797 3.99989
680 8 15.894 17.763 3.98642
681 7 16.9241 18.4381 3.33707
682 6 16.7799 19.7779 3.0163
683 1 13.9289 17.9284 4.85551
684 1 13.6775 20.3072 4.2704
685 1 17.8514 17.9256 3.09925
686 1 15.5 21.4953 3.1
687 1 17.5856 20.3038 2.5202
688 13 12.4 12.4 6.2
689 5 15.5 12.4 6.2
690 5 12.4 9.3 6.2
691 5 12.4 12.4 9.3
692 5 12.4 15.5 6.2
693 11 14.7952 9.39897 9.09729
694 9 16.2251 9.19817 9.50847
695 2 16.3545 8.16177 9.80879
696 2 16.4409 9.86426 10.3396
697 2 16.8631 9.43045 8.65994
698 4 14.1544 9.19531 9.86602
699 4 14.5426 8.78947 8.31773
700 4 14.6242 10.3616 8.80213
701 12 15.5 15.5 9.3
702 6 15.6092 20.4462 9.5452
703 4 16.0176 15.7447 8.45429
704 4 14.5205 15.7322 9.128
705 4 15.5741 14.4922 9.44568
706 10 16.0267 16.3027 10.4829
707 3 15.4398 15.9904 11.3455
708 3 17.0612 15.9919 10.6218
709 7 14.7245 18.4397 10.5219
710 6 14.5833 19.7797 10.1999
711 8 15.894 17.763 10.1864
712 7 16.9241 18.4381 9.53707
713 6 16.7799 19.7779 9.2163
714 1 13.9289 17.9284 11.0555
715 1 13.6775 20.3072 10.4704
716 1 17.8514 17.9256 9.29925
717 1 15.5 21.4953 9.3
718 1 17.5856 20.3038 8.7202
719 13 12.4 12.4 12.4
720 5 15.5 12.4 12.4
721 5 12.4 9.3 12.4
722 5 12.4 12.4 15.5
723 5 12.4 15.5 12.4
724 11 15.4011 9.4102 14.775
725 9 15.6017 9.18662 16.2459
726 2 15.6117 10.1531 16.7427
727 2 16.5499 8.67555 16.3901
728 2 14.7815 8.57741 16.6164
729 4 16.1521 9.97755 14.3786
730 4 14.5207 9.89292 14.5881
731 4 15.3813 8.52662 14.2632
732 12 15.5 15.5 15.5
733 6 15.6092 20.4462 15.7452
734 4 16.0176 15.7447 14.6543
735 4 14.5205 15.7322 15.328
736 4 15.5741 14.4922 15.6457
737 10 16.0267 16.3027 16.6829
738 3 15.4398 15.9904 17.5455
739 3 17.0612 15.9919 16.8218
740 7 14.7245 18.4397 16.7219
741 6 14.5833 19.7797 16.3999
742 8 15.894 17.763 16.3864
743 7 16.9241 18.4381 15.7371
744 6 16.7799 19.7779 15.4163
745 1 13.9289 17.9284 17.2555
746 1 13.6775 20.3072 16.6704
747 1 17.8514 17.9256 15.4993
748 1 15.5 21.4953 15.5
749 1 17.5856 20.3038 14.9202
750 13 12.4 12.4 18.6
751 5 15.5 12.4 18.6
752 5 12.4 9.3 18.6
753 5 12.4 12.4 -3.1
754 5 12.4 15.5 18.6
755 11 15.384 8.78849 -2.57799
756 9 15.6193 9.82621 21.163
757 2 16.0864 9.34529 20.3076
758 2 16.2726 10.5927 21.5713
759 2 14.6609 10.2544 20.8816
760 4 16.2598 8.35786 -2.27726
761 4 14.7755 8.04155 -2.91686
762 4 14.9415 9.19351 -1.7514
763 12 15.5 15.5 -3.1
764 6 15.6092 20.4462 -2.8548
765 4 16.0176 15.7447 20.8543
766 4 14.5205 15.7322 21.528
767 4 15.5741 14.4922 -2.95432
768 10 16.0267 16.3027 -1.91707
769 3 15.4398 15.9904 -1.05447
770 3 17.0612 15.9919 -1.77818
771 7 14.7245 18.4397 -1.87808
772 6 14.5833 19.7797 -2.20011
773 8 15.894 17.763 -2.21358
774 7 16.9241 18.4381 -2.86293
775 6 16.7799 19.7779 21.6163
776 1 13.9289 17.9284 -1.34449
777 1 13.6775 20.3072 -1.9296
778 1 17.8514 17.9256 21.6993
779 1 15.5 21.4953 21.7
780 1 17.5856 20.3038 21.1202
781 13 18.6 0 0
782 5 -3.1 0 0
783 5 18.6 -3.1 0
784 5 18.6 0 3.1
785 12 -3.1 -3.1 3.1
786 6 21.5908 -8.04624 3.3452
787 4 21.1824 -3.34466 2.25429
788 4 -2.12049 -3.33215 2.928
789 4 21.6259 -2.09222 3.24568
790 10 21.1733 -3.90274 4.28293
791 3 -3.03982 -3.59036 5.14553
792 3 20.1388 -3.5919 4.42182
793 7 -2.3245 -6.03973 4.32192
794 6 -2.18335 -7.37968 3.99989
795 8 21.306 -5.36304 3.98642
796 7 20.2759 -6.03808 3.33707
797 6 20.4201 -7.37795 3.0163
798 1 -1.52895 -5.52844 4.85551
799 1 -1.27751 -7.90717 4.2704
800 1 19.3486 -5.52561 3.09925
801 1 -3.1 -9.09526 3.1
802 1 19.6144 -7.90382 2.5202
803 13 18.6 0 6.2
804 5 -3.1 0 6.2
805 5 18.6 -3.1 6.2
806 5 18.6 0 9.3
807 12 -3.1 -3.1 9.3
808 6 21.5908 -8.04624 9.5452
809 4 21.1824 -3.34466 8.45429
810 4 -2.12049 -3.33215 9.128
811 4 21.6259 -2.09222 9.44568
812 10 21.1733 -3.90274 10.4829
813 3 -3.03982 -3.59036 11.3455
814 3 20.1388 -3.5919 10.6218
815 7 -2.3245 -6.03973 10.5219
816 6 -2.18335 -7.37968 10.1999
817 8 21.306 -5.36304 10.1864
818 7 20.2759 -6.03808 9.53707
819 6 20.4201 -7.37795 9.2163
820 1 -1.52895 -5.52844 11.0555
821 1 -1.27751 -7.90717 10.4704
822 1 19.3486 -5.52561 9.29925
823 1 -3.1 -9.09526 9.3
824 1 19.6144 -7.90382 8.7202
825 13 18.6 0 12.4
826 5 -3.1 0 12.4
827 5 18.6 -3.1 12.4
828 5 18.6 0 15.5
829 12 -3.1 -3.1 15.5
830 6 21.5908 -8.04624 15.7452
831 4 21.1824 -3.34466 14.6543
832 4 -2.12049 -3.33215 15.328
833 4 21.6259 -2.09222 15.6457
834 10 21.1733 -3.90274 16.6829
835 3 -3.03982 -3.59036 17.5455
836 3 20.1388 -3.5919 16.8218
837 7 -2.3245 -6.03973 16.7219
838 6 -2.18335 -7.37968 16.3999
839 8 21.306 -5.36304 16.3864
840 7 20.2759 -6.03808 15.7371
841 6 20.4201 -7.37795 15.4163
842 1 -1.52895 -5.52844 17.2555
843 1 -1.27751 -7.90717 16.6704
844 1 19.3486 -5.52561 15.4993
845 1 21.7 -9.09526 15.5
846 1 19.6144 -7.90382 14.9202
847 13 18.6 0 18.6
848 5 -3.1 0 18.6
849 5 18.6 -3.1 18.6
850 5 18.6 0 -3.1
851 12 -3.1 -3.1 -3.1
852 6 21.5908 -8.04624 -2.8548
853 4 21.1824 -3.34466 20.8543
854 4 -2.12049 -3.33215 21.528
855 4 21.6259 -2.09222 -2.95432
856 10 21.1733 -3.90274 -1.91707
857 3 -3.03982 -3.59036 -1.05447
858 3 20.1388 -3.5919 -1.77818
859 7 -2.3245 -6.03973 -1.87808
860 6 -2.18335 -7.37968 -2.20011
861 8 21.306 -5.36304 -2.21358
862 7 20.2759 -6.03808 -2.86293
863 6 20.4201 -7.37795 21.6163
864 1 -1.52895 -5.52844 -1.34449
865 1 -1.27751 -7.90717 -1.9296
866 1 19.3486 -5.52561 21.6993
867 1 -3.1 -9.09526 21.7
868 1 19.6144 -7.90382 21.1202
869 13 18.6 6.2 0
870 5 -3.1 6.2 0
871 5 18.6 3.1 0
872 5 18.6 6.2 3.1
873 11 21.198 2.69384 3.46136
874 9 -2.58358 3.51788 2.72821
875 2 -2.29315 2.98428 1.82709
876 2 -1.7245 3.66133 3.37821
877 2 -3.03249 4.47472 2.4752
878 4 21.5759 1.78228 3.72458
879 4 20.3695 2.5283 2.8875
880 4 20.8904 3.15737 4.31783
881 13 18.6 6.2 6.2
882 5 -3.1 6.2 6.2
883 5 18.6 3.1 6.2
884 5 18.6 6.2 9.3
885 11 -3.08483 2.51576 8.8461
886 9 21.6845 3.70106 9.76694
887 2 -2.91122 3.35725 10.7775
888 2 20.6981 4.15403 9.712
889 2 -2.35478 4.40709 9.44469
890 4 21.0122 1.82257 9.10761
891 4 -2.17496 2.05228 8.8655
892 4 21.531 2.78997 7.87971
893 13 18.6 6.2 12.4
894 5 -3.1 6.2 12.4
895 5 18.6 3.1 12.4
896 5 18.6 6.2 15.5
897 11 21.2703 2.65607 15.0927
898 9 -2.65795 3.55664 15.9191
899 2 21.582 3.86651 16.7974
900 2 -2.3869 4.42008 15.3173
901 2 -1.76951 3.00286 16.2107
902 4 20.4204 3.13501 14.7905
903 4 20.9854 1.82818 15.6185
904 4 -3.04387 2.33466 14.2538
905 13 18.6 6.2 18.6
906 5 -3.1 6.2 18.6
907 5 18.6 3.1 18.6
908 5 18.6 6.2 -3.1
909 11 -3.0869 2.42821 -2.78996
910 9 21.6865 3.7911 21.381
911 2 -2.80389 3.69746 20.3435
912 2 -2.42775 4.43482 -2.87455
913 2 20.6728 4.1784 21.4416
914 4 -2.15016 2.02244 -2.81975
915 4 21.0841 1.78336 21.5289
916 4 21.4253 2.46422 -1.81072
917 13 18.6 12.4 0
918 5 -3.1 12.4 0
919 5 18.6 9.3 0
920 5 18.6 12.4 3.1
921 5 18.6 15.5 0
922 11 -2.93687 8.67895 3.4678
923 9 21.5321 9.93889 2.72161
924 2 -2.99689 9.80219 1.67808
925 2 -2.6998 10.7564 3.15761
926 2 20.4655 10.1247 2.816
927 4 -1.94025 8.4632 3.41089
928 4 21.3539 7.87791 3.09086
929 4 21.6223 8.75776 4.45715
930 12 -3.1 15.5 3.1
931 6 -2.99082 20.4462 3.3452
932 4 -2.58236 15.7447 2.25429
933 4 20.7205 15.7322 2.928
934 4 -3.02595 14.4922 3.24568
935 10 -2.57328 16.3027 4.28293
936 3 21.6398 15.9904 5.14553
937 3 -1.53876 15.9919 4.42182
938 7 20.9245 18.4397 4.32192
939 6 20.7833 19.7797 3.99989
940 8 -2.70596 17.763 3.98642
941 7 -1.67589 18.4381 3.33707
942 6 -1.82014 19.7779 3.0163
943 1 20.1289 17.9284 4.85551
944 1 19.8775 20.3072 4.2704
945 1 -0.748577 17.9256 3.09925
946 1 21.7 21.4953 3.1
947 1 -1.01436 20.3038 2.5202
948 13 18.6 12.4 6.2
949 5 -3.1 12.4 6.2
950 5 18.6 9.3 6.2
951 5 18.6 12.4 9.3
952 5 18.6 15.5 6.2
953 11 -2.85305 9.6582 8.70141
954 9 21.446 8.93154 9.91584
955 2 -2.77193 8.02183 10.0371
956 2 20.3962 8.69361 9.76584
957 2 21.569 9.57935 10.7797
958 4 -2.95132 9.0885 7.8595
959 4 -1.86543 9.90136 8.79365
960 4 21.4305 10.5256 8.54691
961 12 -3.1 15.5 9.3
962 6 -2.99082 20.4462 9.5452
963 4 -2.58236 15.7447 8.45429
964 4 20.7205 15.7322 9.128
965 4 -3.02595 14.4922 9.44568
966 10 -2.57328 16.3027 10.4829
967 3 21.6398 15.9904 11.3455
968 3 -1.53876 15.9919 10.6218
969 7 20.9245 18.4397 10.5219
970 6 20.7833 19.7797 10.1999
971 8 -2.70596 17.763 10.1864
972 7 -1.67589 18.4381 9.53707
973 6 -1.82014 19.7779 9.2163
974 1 20.1289 17.9284 11.0555
975 1 19.8775 20.3072 10.4704
976 1 -0.748577 17.9256 9.29925
977 1 -3.1 21.4953 9.3
978 1 -1.01436 20.3038 8.7202
979 13 18.6 12.4 12.4
980 5 -3.1 12.4 12.4
981 5 18.6 9.3 12.4
982 5 18.6 12.4 15.5
983 5 18.6 15.5 12.4
984 11 21.3767 9.38941 16.1596
985 9 -2.76742 9.20795 14.8214
986 2 -1.6913 9.16856 14.968
987 2 -3.03412 10.0515 14.1903
988 2 21.6742 8.27915 14.3856
989 4 21.6807 10.2546 16.6092
990 4 21.6014 8.61969 16.7922
991 4 20.3598 9.42917 16.0737
992 12 -3.1 15.5 15.5
993 6 -2.99082 20.4462 15.7452
994 4 -2.58236 15.7447 14.6543
995 4 20.7205 15.7322 15.328
996 4 -3.02595 14.4922 15.6457
997 10 -2.57328 16.3027 16.6829
998 3 21.6398 15.9904 17.5455
999 3 -1.53876 15.9919 16.8218
1000 7 20.9245 18.4397 16.7219
1001 6 20.7833 19.7797 16.3999
1002 8 -2.70596 17.763 16.3864
1003 7 -1.67589 18.4381 15.7371
1004 6 -1.82014 19.7779 15.4163
1005 1 20.1289 17.9284 17.2555
1006 1 19.8775 20.3072 16.6704
1007 1 -0.748577 17.9256 15.4993
1008 1 -3.1 21.4953 15.5
1009 1 -1.01436 20.3038 14.9202
1010 13 18.6 12.4 18.6
1011 5 -3.1 12.4 18.6
1012 5 18.6 9.3 18.6
1013 5 18.6 12.4 -3.1
1014 5 18.6 15.5 18.6
1015 11 -2.73842 9.89183 21.4419
1016 9 21.328 8.69116 -2.83456
1017 2 20.8582 8.95886 -1.89184
1018 2 -2.75555 7.88742 -2.68713
1019 2 20.5769 8.40138 21.2354
1020 4 -2.01641 10.2011 -2.70529
1021 4 21.4282 10.6785 21.29
1022 4 -2.28086 9.68979 20.5515
1023 12 -3.1 15.5 -3.1
1024 6 -2.99082 20.4462 -2.8548
1025 4 -2.58236 15.7447 20.8543
1026 4 20.7205 15.7322 21.528
1027 4 -3.02595 14.4922 -2.95432
1028 10 -2.57328 16.3027 -1.91707
1029 3 21.6398 15.9904 -1.05447
1030 3 -1.53876 15.9919 -1.77818
1031 7 20.9245 18.4397 -1.87808
1032 6 20.7833 19.7797 -2.20011
1033 8 -2.70596 17.763 -2.21358
1034 7 -1.67589 18.4381 -2.86293
1035 6 -1.82014 19.7779 21.6163
1036 1 20.1289 17.9284 -1.34449
1037 1 19.8775 20.3072 -1.9296
1038 1 -0.748577 17.9256 21.6993
1039 1 21.7 21.4953 21.7
1040 1 -1.01436 20.3038 21.1202
ITEM: TIMESTEP
1000
ITEM: NUMBER OF ATOMS
1040
ITEM: BOX BOUNDS pp pp pp
-3.1000000000000001e+00 2.1700000000000003e+01
-6.9095259441535461e+01 8.1495259441535467e+01
-3.1000000000000001e+00 2.1700000000000003e+01
ITEM: ATOMS id type x y z
1 13 -0.334914 0.0766298 0.998464
2 5 2.80431 0.196167 0.937365
3 5 -0.804533 -3.23261 0.839298
4 5 -0.064733 -0.0133136 4.08851
5 12 3.41487 -2.42289 3.79881
6 6 3.2085 -7.40474 2.78254
7 4 3.34702 -2.39023 2.76539
8 4 4.41057 -2.59517 4.02271
9 4 3.20083 -1.46994 4.15044
10 10 2.50584 -3.471 4.43713
11 3 2.65383 -3.44543 5.5208
12 3 1.46962 -3.16433 4.25959
13 7 4.03374 -5.42029 3.90045
14 6 4.27237 -6.68071 3.35351
15 8 2.73957 -4.86066 3.88296
16 7 1.67768 -5.60033 3.3275
17 6 1.91063 -6.88014 2.79341
18 1 4.8512 -4.8319 4.30837
19 1 5.2804 -7.08135 3.32539
20 1 0.678572 -5.16509 3.30419
21 1 3.4011 -8.36854 2.3248
22 1 1.08683 -7.4306 2.34806
23 13 -0.147274 0.0537401 7.03965
24 5 2.96668 0.227534 7.00718
25 5 -0.327223 -2.97022 7.21825
26 5 -0.311978 0.265275 10.1047
27 12 2.9819 -2.28292 9.72708
28 6 2.70634 -7.48999 9.9624
29 4 2.81873 -2.47862 8.72007
30 4 4.00848 -2.341 9.87066
31 4 2.72946 -1.28955 9.87126
32 10 2.207 -3.22272 10.6491
33 3 2.42188 -2.93913 11.6858
34 3 1.15049 -2.99715 10.4707