ITEM: TIMESTEP
110000
ITEM: NUMBER OF ATOMS
1040
ITEM: BOX BOUNDS pp pp pp
-3.1032830319133278e+00 2.1703283031913426e+01
-6.9095259441535461e+01 8.1495259441535467e+01
-3.1412794295632405e+00 2.1741279429562937e+01
ITEM: ATOMS id type x y z
1 13 -0.407453 -0.232915 8.53043
2 5 2.60241 -0.421906 8.82254
3 5 -0.959271 -3.30371 8.55261
4 5 -0.542923 -0.0403197 11.7822
5 12 2.52715 -2.47015 12.3261
6 6 1.27347 -6.98968 11.2812
7 4 2.77996 -1.47019 12.3288
8 4 2.54192 -2.79882 13.3149
9 4 1.52045 -2.60364 12.0321
10 10 3.42211 -3.36817 11.4789
11 3 3.45946 -3.07665 10.4765
12 3 4.42345 -3.34169 11.9513
13 7 2.5785 -5.32103 10.2584
14 6 1.78786 -6.42128 10.0737
15 8 2.87184 -4.76301 11.4599
16 7 2.45467 -5.41587 12.6533
17 6 1.56941 -6.50873 12.5349
18 1 2.99192 -4.80644 9.3927
19 1 1.57422 -6.80912 9.06845
20 1 2.65671 -4.87794 13.5638
21 1 0.571517 -7.82543 11.2342
22 1 1.14239 -6.93903 13.4616
23 13 -0.645274 -0.167957 14.8156
24 5 2.60257 0.148682 14.9309
25 5 -0.205769 -3.35767 15.0149
26 5 -0.403259 -0.105005 17.8445
27 12 2.39051 -2.82056 17.4907
28 6 2.92666 -7.9475 18.6147
29 4 2.80009 -3.01768 16.5741
30 4 2.50055 -1.72617 17.694
31 4 1.38221 -3.10766 17.5151
32 10 3.17032 -3.65612 18.5369
33 3 4.18529 -3.32613 18.575
34 3 2.74437 -3.43218 19.4796
35 7 4.36651 -5.92584 18.5719
36 6 4.22098 -7.34093 18.6932
37 8 3.17437 -5.12625 18.3673
38 7 1.95324 -5.79383 18.1396
39 6 1.80826 -7.1711 18.3243
40 1 5.28533 -5.3862 18.6056
41 1 5.04122 -8.041 18.8259
42 1 1.06041 -5.20531 18.0055
43 1 2.82832 -8.97834 18.7014
44 1 0.890004 -7.7239 18.1986
45 13 -0.223604 -0.481092 20.9499
46 5 2.70082 -0.508349 20.9777
47 5 -0.45635 -3.48178 20.6212
48 5 -0.20274 -0.51421 -0.938204
49 12 3.04279 -2.69573 -0.681493
50 6 3.94666 -7.44917 -1.55426
51 4 3.2081 -2.73609 -1.69247
52 4 3.94807 -2.67094 -0.240984
53 4 2.45443 -1.85817 -0.495081
54 10 2.17782 -3.80555 -0.233177
55 3 2.18147 -3.72323 0.849912
56 3 1.11888 -3.60881 -0.618929
57 7 2.69541 -5.48663 -1.98931
58 6 3.22841 -6.69226 -2.44838
59 8 2.71655 -5.14863 -0.66389
60 7 3.30791 -5.95723 0.326467
61 6 3.98304 -7.11309 -0.176317
62 1 2.22529 -4.8472 -2.72008
63 1 3.11549 -6.91508 21.4069
64 1 3.27206 -5.61744 1.36098
65 1 4.57104 -8.30247 -1.89098
66 1 4.62492 -7.67714 0.554344
67 13 -0.457369 -0.166547 2.35451
68 5 2.57729 0.000905812 2.44775
69 5 -0.986953 -3.47098 2.31688
70 5 -0.493889 -0.195831 5.48719
71 12 2.77581 -2.65673 5.0383
72 6 3.10409 -7.65817 4.87593
73 4 2.63477 -1.64419 5.33924
74 4 2.01871 -2.89174 4.37394
75 4 3.66184 -2.68276 4.55251
76 10 2.8641 -3.57323 6.2442
77 3 3.77226 -3.383 6.85003
78 3 2.04843 -3.266 6.89842
79 7 3.95384 -5.86549 6.30254
80 6 4.09996 -7.17177 5.74814
81 8 2.83022 -5.07385 5.9446
82 7 1.75474 -5.68463 5.31057
83 6 1.85614 -6.99775 4.77505
84 1 4.83211 -5.48674 6.84461
85 1 4.96102 -7.76542 5.93331
86 1 0.763952 -5.14237 5.09618
87 1 3.31411 -8.59565 4.2908
88 1 1.10787 -7.44557 4.13078
89 13 -0.36302 6.11704 8.58829
90 5 2.50931 5.98816 9.09128
91 5 -0.45868 2.73728 8.52697
92 5 -0.552909 6.08869 11.7113
93 11 1.80904 3.13023 12.0478
94 9 3.00048 2.41584 11.3875
95 2 4.04269 2.63413 11.7416
96 2 2.98278 2.57251 10.3361
97 2 2.95287 1.35558 11.6367
98 4 1.74965 3.17849 13.0516
99 4 0.803761 2.81534 11.8603
100 4 1.8601 4.12203 11.7599
101 13 -0.60296 6.20706 14.9031
102 5 2.54648 5.76112 14.7472
103 5 -0.675543 2.92793 14.9436
104 5 -0.518635 5.71635 17.979
105 11 1.99412 3.12405 17.3443
106 9 3.2041 2.88842 18.1838
107 2 3.21154 3.66245 18.9749
108 2 4.0751 2.90769 17.5921
109 2 3.20427 1.93352 18.7077
110 4 1.86281 4.11567 17.0881
111 4 1.11005 2.82512 17.8204
112 4 1.98371 2.6255 16.4153
113 13 -0.275334 5.86678 21.151
114 5 2.8014 5.9901 21.5822
115 5 -0.239101 2.62864 20.9819
116 5 -0.266976 5.9992 -0.678305
117 11 3.19798 3.46587 -0.23369
118 9 2.41317 2.48478 -1.06829
119 2 2.63784 2.67556 -2.1394
120 2 1.33816 2.54429 -0.859057
121 2 2.78939 1.49329 -0.814928
122 4 4.12294 3.5001 -0.749481
123 4 3.25622 3.19054 0.80926
124 4 2.73421 4.38485 -0.361626
125 13 -0.429502 5.98174 2.41452
126 5 2.79874 6.07212 2.55972
127 5 -0.424173 2.80683 2.36213
128 5 -0.355055 5.87487 5.56563
129 11 1.88591 2.69514 5.19241
130 9 2.99189 2.92323 6.19302
131 2 4.01021 2.76593 5.81884
132 2 2.84344 2.23268 7.10414
133 2 2.98584 3.94632 6.5696
134 4 1.79602 3.48844 4.58626
135 4 0.947074 2.6113 5.57843
136 4 1.89271 1.85261 4.75432
137 13 -0.430714 12.3423 8.48737
138 5 2.61934 12.0988 8.42393
139 5 -0.2924 9.0987 8.43923
140 5 -0.281723 12.366 11.4943
141 5 -0.329973 15.6598 8.69714
142 11 3.11004 8.48336 12.3234
143 9 2.23084 9.37469 11.5951
144 2 1.14084 9.13702 11.6101
145 2 2.60967 9.30872 10.6001
146 2 2.47924 10.3528 12.0138
147 4 3.05435 8.51524 13.3502
148 4 4.14327 8.64636 12.2093
149 4 2.94004 7.50527 12.0075
150 12 2.60761 14.6385 11.116
151 6 2.60506 19.7269 11.5743
152 4 1.6534 14.8456 10.9351
153 4 2.6685 13.5994 11.2264
154 4 3.11339 14.8698 10.2565
155 10 3.20686 15.4947 12.3312
156 3 2.63905 15.1652 13.2707
157 3 4.18964 15.1958 12.4314
158 7 1.79903 17.5097 12.0188
159 6 1.52155 18.8384 11.7126
160 8 3.06875 17.0125 12.1791
161 7 4.17467 17.8481 12.0361
162 6 3.91131 19.2483 11.7829
163 1 0.95134 16.8281 11.9672
164 1 0.521655 19.1701 11.5971
165 1 5.22741 17.4941 12.1614
166 1 2.42664 20.7676 11.2619
167 1 4.74397 19.9386 11.7751
168 13 -0.190774 12.324 14.8521
169 5 2.73138 12.1609 15.1446
170 5 -0.156013 9.10721 14.7227
171 5 -0.267917 12.2047 18.0099
172 5 -0.0842468 15.4285 14.986
173 11 2.8564 9.86626 18.5723
174 9 2.35633 8.58941 17.8848
175 2 2.63602 8.49638 16.8205
176 2 1.27822 8.54169 17.9751
177 2 2.63097 7.68323 18.4173
178 4 2.54945 9.77944 19.5727
179 4 2.36419 10.7537 18.2617
180 4 3.90114 9.99939 18.5199
181 12 2.44312 14.7817 17.7769
182 6 3.11321 19.9252 17.356
183 4 1.456 15.1687 17.8944
184 4 2.25144 13.8417 18.2185
185 4 2.51118 14.7214 16.7443
186 10 3.43312 15.6614 18.4735
187 3 3.29532 15.5823 19.5907
188 3 4.3139 15.1708 18.2189
189 7 3.47061 18.2089 19.0579
190 6 3.22273 19.5392 18.6255
191 8 3.48096 17.156 18.0947
192 7 3.33046 17.5343 16.722
193 6 3.16381 18.8776 16.3653
194 1 3.44409 17.928 20.0703
195 1 2.7658 20.1498 19.3492
196 1 3.38159 16.7368 15.9189
197 1 2.72708 20.9173 17.0872
198 1 3.08031 19.1463 15.3558
199 13 -0.536816 12.3979 21.0909
200 5 2.76778 12.5263 20.9355
201 5 -0.187024 9.06172 20.9512
202 5 -0.374244 12.4725 -0.657742
203 5 -0.621255 15.462 20.4837
204 11 3.13805 8.61225 -0.0481242
205 9 2.31697 9.44009 -0.991423
206 2 1.21232 9.25932 -0.913184
207 2 2.5847 9.25928 -2.02293
208 2 2.38778 10.4938 -0.74064
209 4 4.10447 8.89378 -0.0981258
210 4 3.01778 7.62995 -0.310401
211 4 2.78621 8.76828 0.913725
212 12 3.00504 14.5526 -0.661352
213 6 2.17249 19.2348 0.859391
214 4 2.37034 14.1493 0.0877513
215 4 3.85808 14.9632 -0.33173
216 4 3.23546 13.7775 -1.32332
217 10 2.14765 15.6323 -1.286
218 3 2.41022 15.6758 -2.30453
219 3 1.12334 15.3552 -1.29223
220 7 1.007 17.4766 -0.27115
221 6 0.958169 18.6442 0.542592
222 8 2.23905 16.934 -0.596856
223 7 3.46063 17.5174 -0.320492
224 6 3.34523 18.6961 0.415107
225 1 0.0903419 16.8669 -0.353959
226 1 0.056327 19.0428 0.955277
227 1 4.41024 17.2101 -0.744009
228 1 2.09499 20.0726 1.54147
229 1 4.22931 19.2705 0.573179
230 13 -0.259087 12.1533 2.45942
231 5 2.73129 12.1917 2.32359
232 5 -0.322081 9.05071 2.21903
233 5 -0.507968 12.1393 5.48615
234 5 -0.0587196 15.0565 2.7784
235 11 3.05025 8.40918 6.36753
236 9 2.19427 9.08944 5.34199
237 2 2.52443 8.86626 4.41542
238 2 2.1854 10.1404 5.50807
239 2 1.21396 8.67134 5.28613
240 4 2.8727 8.67591 7.35575
241 4 4.07415 8.52986 6.09434
242 4 2.90869 7.37019 6.34271
243 12 2.60365 14.4208 5.3696
244 6 1.18677 19.1279 5.49109
245 4 2.93065 13.4917 5.7034
246 4 2.72466 14.5653 4.33328
247 4 1.56663 14.5581 5.56952
248 10 3.37925 15.5297 6.10347
249 3 3.12928 15.3723 7.15528
250 3 4.45367 15.4328 5.97062
251 7 2.48567 17.3017 4.59412
252 6 1.56061 18.3352 4.34434
253 8 2.84937 16.9566 5.88613
254 7 2.61856 17.781 6.96905
255 6 1.82965 18.9623 6.7284
256 1 2.718 16.555 3.86193
257 1 1.07628 18.3818 3.37441
258 1 3.07162 17.3453 7.91111
259 1 0.354097 19.8551 5.38951
260 1 1.71277 19.6556 7.55267
261 13 5.74682 -0.37236 8.74884
262 5 8.96209 0.111353 8.88375
263 5 6.40989 -3.20896 8.79033
264 5 5.78465 -0.263227 11.8983
265 12 9.27532 -2.50968 11.3328
266 6 9.03436 -7.60102 10.8542
267 4 8.93664 -2.54736 10.3444
268 4 10.3073 -2.61201 11.3259
269 4 9.07324 -1.58153 11.5858
270 10 8.54137 -3.53613 12.257
271 3 8.83898 -3.2935 13.2591
272 3 7.48654 -3.36929 12.2464
273 7 9.97035 -5.44417 11.4428
274 6 10.1456 -6.71222 10.8655
275 8 8.74312 -4.95762 11.7649
276 7 7.65676 -5.79389 11.5872
277 6 7.77923 -7.1295 11.2191
278 1 10.7307 -4.69157 11.5408
279 1 11.0843 -7.06018 10.4557
280 1 6.71565 -5.29158 11.7728
281 1 9.20994 -8.57912 10.5107
282 1 6.85557 -7.72417 11.1461
283 13 5.74903 -0.0946564 15.0781
284 5 8.88032 -0.272981 14.7844
285 5 5.54478 -3.22983 15.2401
286 5 5.76595 -0.265565 17.973
287 12 8.32729 -2.43876 17.8983
288 6 7.78966 -7.42338 17.4434
289 4 7.71331 -2.54064 18.7998
290 4 7.71284 -2.52705 17.0915
291 4 8.73673 -1.5014 17.9927
292 10 9.42771 -3.44285 17.8695
293 3 10.1156 -3.28176 16.9976
294 3 9.90833 -3.24437 18.8827
295 7 8.46422 -5.56641 18.9036
296 6 7.92329 -6.86948 18.7273
297 8 8.88406 -4.85295 17.7391
298 7 8.74953 -5.454 16.4964
299 6 8.30059 -6.76307 16.3541
300 1 8.59704 -5.11026 19.8836
301 1 7.59114 -7.46128 19.577
302 1 9.06452 -4.8976 15.6312
303 1 7.24388 -8.36631 17.34
304 1 8.16612 -7.19011 15.36
305 13 5.72812 -0.168905 21.1087
306 5 8.87563 -0.295419 20.8366
307 5 5.74906 -3.1966 21.4295
308 5 5.82331 -0.192351 -0.484776
309 12 8.69439 -2.35904 -0.971887
310 6 9.55831 -7.01332 -2.04126
311 4 8.48677 -1.44555 -0.740325
312 4 7.78149 -2.75583 -1.24272
313 4 9.1707 -2.34808 -1.92171
314 10 9.37991 -3.30148 0.0824322
315 3 10.362 -2.87051 0.361657
316 3 8.80866 -3.27923 1.0127
317 7 10.6204 -5.32052 -0.677511
318 6 10.7441 -6.40486 -1.59593
319 8 9.42624 -4.70467 -0.534865
320 7 8.22212 -5.30889 -0.942396
321 6 8.29866 -6.49163 -1.65355
322 1 11.4442 -4.79443 -0.215575
323 1 11.7347 -6.77228 -1.94005
324 1 7.1673 -4.84552 -0.74442
325 1 9.58255 -7.95155 -2.55606
326 1 7.49055 -6.98543 -2.1328
327 13 5.8683 -0.380672 2.49394
328 5 8.87811 -0.155674 2.47811
329 5 5.62108 -3.4006 2.29154
330 5 5.71806 -0.446342 5.57536
331 12 9.35462 -2.65969 6.23958
332 6 9.28673 -7.8733 5.67012
333 4 10.3711 -2.71801 6.08681
334 4 9.26096 -2.91158 7.20504
335 4 9.18636 -1.64688 6.11714
336 10 8.47526 -3.57228 5.20939
337 3 7.44484 -3.4308 5.50598
338 3 8.69189 -3.1438 4.21727
339 7 9.21971 -5.58466 6.57327
340 6 9.32847 -6.97026 6.76955
341 8 8.73647 -5.07976 5.36226
342 7 8.53489 -5.97568 4.2653
343 6 8.8065 -7.35147 4.43931
344 1 9.16519 -4.93057 7.39519
345 1 9.62458 -7.27538 7.77922
346 1 8.06717 -5.63323 3.38414
347 1 9.50068 -8.95446 5.74029
348 1 8.74784 -7.99683 3.55179
349 13 5.7609 5.93363 8.8707
350 5 8.99601 5.91461 8.87681
351 5 5.87032 2.7901 8.73198
352 5 5.69958 5.88143 11.9169
353 11 8.36003 2.85278 11.2337
354 9 9.33725 3.45047 12.2574
355 2 8.99919 3.2813 13.2456
356 2 9.39285 4.54303 12.1017
357 2 10.3669 3.1341 12.0879
358 4 8.11657 1.85072 11.3309
359 4 8.76863 3.02265 10.2406
360 4 7.37797 3.29172 11.3611
361 13 5.62425 5.78991 15.0238
362 5 8.81397 6.12431 15.279
363 5 5.94602 2.94189 14.8879
364 5 5.65436 5.95805 18.0887
365 11 9.43499 3.2546 19.0097
366 9 8.57341 2.59108 17.9444
367 2 8.85392 1.54154 17.8512
368 2 8.88593 3.04452 17.0092
369 2 7.51946 2.6976 18.1866
370 4 9.06218 4.18715 19.0988
371 4 10.4037 3.37029 18.771
372 4 9.32632 2.90817 19.9892
373 13 5.72066 6.02623 21.3108
374 5 8.84857 6.23657 21.4815
375 5 5.85271 2.87158 21.3838
376 5 5.92928 5.85208 -0.504341
377 11 9.4408 3.12847 0.299798
378 9 8.69358 2.69379 -0.950942
379 2 9.08991 3.2499 -1.80305
380 2 7.6338 2.86247 -0.783862
381 2 8.80205 1.63446 -1.08914
382 4 9.18492 4.1473 0.435172
383 4 10.4395 2.93233 0.164999
384 4 9.23859 2.62168 1.14918
385 13 5.76967 5.85252 2.7765
386 5 9.03688 5.89311 2.86874
387 5 5.79547 2.80181 2.66525
388 5 5.58629 5.92077 5.92333
389 11 9.35401 3.35126 6.43657
390 9 8.49198 2.47013 5.54219
391 2 8.67379 2.42327 4.46606
392 2 7.48387 2.76349 5.84782
393 2 8.58727 1.47023 5.87309
394 4 9.1813 4.40041 6.16624
395 4 10.3406 3.08578 6.37812
396 4 9.14016 3.23049 7.46887
397 13 5.83235 12.1286 8.86946
398 5 8.97259 12.2901 8.85058
399 5 5.64684 9.09326 8.93522
400 5 5.6723 12.2406 11.96
401 5 5.79429 15.2508 9.15435
402 11 9.52127 9.63543 12.4398
403 9 8.48018 8.84373 11.7452
404 2 8.52011 7.78578 11.9586
405 2 8.60925 9.04442 10.6489
406 2 7.45129 9.09504 12.125
407 4 9.54422 10.6005 12.2363
408 4 10.4593 9.2958 11.9787
409 4 9.56277 9.45382 13.5085
410 12 8.38934 14.6712 11.771
411 6 8.41817 19.752 11.7933
412 4 7.42769 15 11.772
413 4 8.41027 13.7311 12.2115
414 4 8.61892 14.5885 10.7363
415 10 9.28972 15.5359 12.5943
416 3 9.1664 15.4028 13.7206
417 3 10.277 15.184 12.358
418 7 9.1056 17.9832 13.2732
419 6 8.87742 19.3292 13.0422
420 8 9.08021 17.0472 12.253
421 7 8.86881 17.5386 10.96
422 6 8.58865 18.8652 10.6709
423 1 9.18365 17.5917 14.2722
424 1 8.75375 19.9557 13.8782
425 1 9.03245 16.8626 10.1649
426 1 8.26046 20.8069 11.5763
427 1 8.53387 19.176 9.59053
428 13 5.74406 12.237 15.0634
429 5 8.99642 12.0386 15.1627
430 5 5.51589 8.95618 15.0569
431 5 6.08995 12.0175 18.1464
432 5 6.07561 15.1317 15.0619
433 11 8.42368 8.55363 17.8931
434 9 9.27047 9.47603 18.708
435 2 9.20175 9.29655 19.8027
436 2 9.09496 10.4988 18.4613
437 2 10.2954 9.31786 18.5089
438 4 8.59471 7.54756 18.0307
439 4 8.44539 8.72787 16.8277
440 4 7.44223 8.798 18.0885
441 12 8.92768 14.3974 18.1058
442 6 8.25833 19.547 17.738
443 4 9.16418 13.4778 18.5271
444 4 9.49476 14.3222 17.2399
445 4 7.93995 14.3488 17.8266
446 10 9.43238 15.5451 18.9746
447 3 9.00056 15.4006 19.956
448 3 10.4959 15.4186 18.9887
449 7 7.69007 17.2487 18.3864
450 6 7.29921 18.5298 17.8478
451 8 9.02755 16.9114 18.4639
452 7 9.97618 17.9389 18.3663
453 6 9.62827 19.2534 17.988
454 1 6.85202 16.5208 18.5506
455 1 6.21406 18.6255 17.7492
456 1 11.0258 17.6929 18.5335
457 1 7.91423 20.4943 17.4883
458 1 10.3749 20.1255 17.9645
459 13 5.82287 12.2888 21.2362
460 5 8.99887 12.2664 21.4333
461 5 5.67458 9.20818 21.0343
462 5 5.79206 12.04 -0.494876
463 5 5.86485 15.329 -3.13818
464 11 8.62039 8.31466 0.236204
465 9 8.9661 9.38601 -0.696451
466 2 8.97375 10.3277 -0.209219
467 2 8.31978 9.29357 -1.56248
468 2 9.98546 9.19825 -1.0333
469 4 8.82863 7.46687 -0.250191
470 4 7.62332 8.23835 0.508065
471 4 9.22953 8.30681 1.09445
472 12 8.4374 14.6178 -0.47031
473 6 9.41433 19.5501 -1.05602
474 4 7.4515 14.9416 -0.400895
475 4 8.44569 13.5395 -0.287897
476 4 8.63101 14.815 -1.44421
477 10 9.38924 15.4775 0.263672
478 3 9.18909 15.3301 1.31092
479 3 10.3883 15.0907 0.120434
480 7 8.15898 17.5761 -0.3759
481 6 8.16162 18.9192 -0.848871
482 8 9.34635 16.9271 -0.216512
483 7 10.579 17.5208 -0.558101
484 6 10.6356 18.8594 -0.882638
485 1 7.1845 17.0841 -0.124866
486 1 7.21116 19.4991 -0.880171
487 1 11.4315 16.8788 -0.444842
488 1 9.48994 20.6163 -1.30977
489 1 11.6162 19.3246 -1.06066
490 13 5.78229 12.4001 2.62952
491 5 9.04698 12.2264 2.52971
492 5 6.00473 8.99301 2.75116
493 5 6.13256 12.2375 5.63108
494 5 5.61757 15.269 2.63305
495 11 8.88464 9.80784 5.34421
496 9 8.51567 8.65758 6.2405
497 2 8.61756 7.77897 5.70694
498 2 7.45782 8.71057 6.43812
499 2 9.03251 8.78767 7.17
500 4 8.90448 10.7587 5.8065
501 4 8.15654 9.93624 4.58253
502 4 9.79845 9.76207 4.86028
503 12 9.27345 14.6837 6.34342
504 6 9.56382 19.8249 5.91744
505 4 10.2859 14.6532 6.15303
506 4 8.89808 13.72 6.38564
507 4 9.24002 15.0622 7.27492
508 10 8.52459 15.6261 5.37117
509 3 8.66614 15.2673 4.43056
510 3 7.46755 15.442 5.54637
511 7 10.1383 17.5044 5.8261
512 6 10.567 18.8398 5.98328
513 8 8.87784 17.1553 5.49533
514 7 7.92153 18.1246 5.31527
515 6 8.19683 19.472 5.56544
516 1 10.9166 16.8288 6.10397
517 1 11.6022 19.1424 6.24766
518 1 6.88774 17.7652 5.1094
519 1 9.7928 20.8547 6.2265
520 1 7.42261 20.2129 5.55114
521 13 12.016 0.0454379 8.88972
522 5 15.2782 -0.0745966 8.67499
523 5 11.9062 -2.8621 8.6912
524 5 11.9745 0.233974 11.7604
525 12 14.603 -2.55619 11.9602
526 6 14.9691 -7.50405 12.3024
527 4 14.8535 -1.56294 11.7515
528 4 14.8391 -2.79763 12.9668
529 4 13.6027 -2.72599 11.9829
530 10 15.3623 -3.42722 10.9798
531 3 15.1413 -3.02626 9.94769
532 3 16.3945 -3.31027 11.1665
533 7 16.2829 -5.663 11.4824
534 6 16.1892 -6.92535 12.0818
535 8 15.1282 -4.87438 11.2695
536 7 13.8286 -5.44865 11.5058
537 6 13.8376 -6.74252 12.0119
538 1 17.2686 -5.26309 11.3898
539 1 17.1585 -7.38787 12.503
540 1 12.8612 -4.94673 11.4409
541 1 14.9149 -8.58364 12.8011
542 1 12.8444 -7.19349 12.1907
543 13 11.8347 -0.0358805 14.9438
544 5 15.0557 0.0305199 14.7136
545 5 11.8198 -3.0283 14.4485
546 5 11.9119 -0.13328 17.9999
547 12 15.0161 -2.49309 18.5087
548 6 13.3913 -7.17995 18.0107
549 4 15.1488 -2.805 19.4507
550 4 14.0749 -2.22282 18.355
551 4 15.541 -1.57869 18.4251
552 10 15.4971 -3.37094 17.3885
553 3 15.1416 -2.95038 16.402
554 3 16.5556 -3.47766 17.3968
555 7 14.3386 -5.45659 16.5719
556 6 13.562 -6.61745 16.6894
557 8 14.8284 -4.76419 17.6333
558 7 14.6713 -5.31936 18.9351
559 6 13.9891 -6.5011 19.0744
560 1 14.4343 -5.06424 15.5766
561 1 13.0389 -6.95113 15.8389
562 1 14.9614 -4.79673 19.8422
563 1 12.7413 -8.06064 18.0898
564 1 13.8092 -6.88609 20.015
565 13 11.9379 -0.113178 21.1569
566 5 15.1146 -0.0581956 21.0367
567 5 12.0929 -3.08723 21.3334
568 5 11.7013 -0.0213118 -0.674413
569 12 15.557 -2.64465 -1.18735
570 6 14.6409 -7.62502 -0.343302
571 4 15.8347 -1.68082 -0.857213
572 4 15.1512 -2.47928 -2.11927
573 4 16.3807 -3.20055 -1.4028
574 10 14.648 -3.40153 -0.209283
575 3 15.053 -3.20372 0.825729
576 3 13.715 -2.89254 -0.200151
577 7 14.5866 -5.576 0.897069
578 6 14.5689 -6.93866 0.905686
579 8 14.5815 -4.89123 -0.293084
580 7 14.5912 -5.55205 -1.51545
581 6 14.6156 -6.96163 -1.52259
582 1 14.6369 -5.01656 1.79947
583 1 14.4961 -7.54855 1.76329
584 1 14.5276 -4.98386 -2.40799
585 1 14.8004 -8.70179 -0.371685
586 1 14.5569 -7.56324 -2.46365
587 13 12.0256 -0.0836337 2.71953
588 5 14.9063 -0.151884 2.51029
589 5 12.1478 -3.0907 3.19436
590 5 12.0266 0.155112 5.89802
591 12 14.919 -2.56829 5.98973
592 6 15.1456 -7.78812 5.48902
593 4 15.0621 -2.61301 7.02383
594 4 13.9054 -2.79376 5.92022
595 4 15.1246 -1.57273 5.71358
596 10 15.887 -3.48038 5.20758
597 3 15.6041 -3.24779 4.13065
598 3 16.9354 -3.30002 5.41232
599 7 14.2625 -5.51831 5.66271
600 6 14.0802 -6.89225 5.80285
601 8 15.5638 -5.02237 5.35768
602 7 16.6491 -5.88124 5.01934
603 6 16.3848 -7.26175 4.97167
604 1 13.4129 -4.8373 5.94132
605 1 13.1391 -7.18883 5.87684
606 1 17.6237 -5.3594 4.74407
607 1 14.9075 -8.82531 5.53809
608 1 17.124 -8.02763 4.58149
609 13 11.9849 6.1745 9.0463
610 5 15.0814 6.16847 8.70882
611 5 11.938 3.21483 9.01723
612 5 12.2866 6.15972 12.0583
613 11 14.7193 3.48736 12.5334
614 9 15.5077 2.7081 11.4964
615 2 15.198 1.69018 11.7048
616 2 16.5903 2.72401 11.7302
617 2 15.2414 2.95926 10.5171
618 4 14.9827 4.52489 12.5356
619 4 14.825 3.17816 13.5171
620 4 13.7138 3.55342 12.3077
621 13 11.8721 6.04633 15.2589
622 5 15.0729 6.31956 15.303
623 5 12.2056 3.16068 15.291
624 5 11.8436 6.29517 18.4724
625 11 15.5687 2.51625 17.6936
626 9 14.8547 3.34378 18.6319
627 2 15.1513 3.02094 19.6154
628 2 13.8083 3.20685 18.542
629 2 15.1161 4.3457 18.4346
630 4 15.6399 2.9394 16.7562
631 4 15.0816 1.62236 17.6248
632 4 16.5573 2.32108 18.0218
633 13 11.9916 6.08012 21.6765
634 5 14.9449 5.97625 21.6857
635 5 11.8947 3.02775 21.5441
636 5 11.8144 6.14174 -0.117145
637 11 14.5888 3.59668 -0.0961643
638 9 15.3677 2.49012 -0.753808
639 2 16.3679 2.54258 -0.284149
640 2 15.4371 2.72463 -1.84117
641 2 14.8101 1.55103 -0.543584
642 4 14.5777 3.4088 0.874832
643 4 13.6265 3.69702 -0.543815
644 4 14.9396 4.5261 -0.166077
645 13 12.1091 6.42231 2.96968
646 5 15.1539 6.03469 3.08324
647 5 12.2422 2.91838 2.93491
648 5 11.7173 6.36182 6.06906
649 11 15.1932 2.05461 5.46855
650 9 14.8785 3.29314 6.2816
651 2 14.8459 3.01375 7.39477
652 2 13.9359 3.63885 5.90984
653 2 15.7138 3.93573 6.13558
654 4 14.7954 1.12412 5.73092
655 4 16.2146 1.88401 5.40129
656 4 14.9283 2.22032 4.50797
657 13 12.1884 12.4488 8.98338
658 5 15.2507 12.4212 8.6083
659 5 12.0204 9.08836 9.24749
660 5 12.0724 12.2654 12.0824
661 5 12.0425 15.5838 8.97194
662 11 14.7687 8.70406 12.6301
663 9 15.4566 9.47987 11.5341
664 2 15.1551 10.5337 11.681
665 2 15.1869 9.08887 10.5194
666 2 16.5304 9.37759 11.66
667 4 13.7381 8.81941 12.5137
668 4 15.0044 9.0196 13.6143
669 4 15.0039 7.63716 12.5498
670 12 15.5189 14.507 11.9057
671 6 14.8178 19.0406 10.7868
672 4 15.3242 14.6554 10.896
673 4 15.3139 13.4541 12.0959
674 4 16.5063 14.8031 11.9943
675 10 14.6064 15.3928 12.7517
676 3 13.6536 14.9259 12.5553
677 3 14.7883 15.3168 13.8344
678 7 15.9084 17.2955 11.8512
679 6 16.0023 18.4972 11.2142
680 8 14.6631 16.8122 12.3171
681 7 13.4642 17.4916 12.1222
682 6 13.5423 18.5776 11.2538
683 1 16.8157 16.7707 12.0541
684 1 16.9329 18.7743 10.7955
685 1 12.5111 17.0718 12.3358
686 1 14.9298 19.784 10.0412
687 1 12.6231 18.9959 10.8881
688 13 12.087 12.2548 15.249
689 5 15.177 12.1769 14.799
690 5 11.9138 9.16635 15.1199
691 5 12.0328 12.1016 18.3071
692 5 11.8662 15.2945 15.6536
693 11 14.7979 8.55027 18.8146
694 9 15.5846 9.4487 17.8695
695 2 15.401 10.5456 18.002
696 2 15.4463 9.14797 16.8404
697 2 16.5745 9.33287 18.1285
698 4 14.9242 7.54203 18.6501
699 4 13.7975 8.83214 18.7779
700 4 15.0643 8.68376 19.7447
701 12 14.697 14.6299 18.4657
702 6 14.6549 19.6833 17.7097
703 4 14.9544 14.7034 19.4704
704 4 14.71 13.6393 18.1854
705 4 13.7343 14.9644 18.4469
706 10 15.6704 15.459 17.5808
707 3 16.7197 15.2261 17.7933
708 3 15.4948 15.1903 16.5856
709 7 15.0663 17.6871 16.3897
710 6 14.7336 19.0446 16.4451
711 8 15.3411 16.986 17.5906
712 7 15.2304 17.6521 18.8532
713 6 14.941 19.0036 18.8846
714 1 15.0242 17.1662 15.4293
715 1 14.6087 19.5964 15.4975
716 1 15.3423 17.0029 19.7024
717 1 14.4591 20.7665 17.691
718 1 14.8243 19.4778 19.7816
719 13 12.0639 12.178 21.3651
720 5 15.2777 12.2 21.1801
721 5 12.1434 8.97037 21.4511
722 5 12.1705 12.0758 -0.342027
723 5 12.6102 15.3924 21.5001
724 11 15.7477 9.42743 -1.19559
725 9 14.9015 8.86413 -0.101076
726 2 13.8439 8.817 -0.307075
727 2 15.0118 9.30714 0.850754
728 2 15.1281 7.84156 -0.177559
729 4 15.6031 10.4611 -1.30209
730 4 15.5371 9.09116 -2.13409
731 4 16.7498 9.18258 -1.00709
732 12 14.8135 14.6187 -0.186866
733 6 14.3024 19.6864 -0.0307707
734 4 13.8511 14.8297 -0.592927
735 4 14.6746 14.514 0.829793
736 4 15.0222 13.6681 -0.522151
737 10 15.8587 15.6868 -0.645357
738 3 16.8255 15.4908 -0.230563
739 3 15.8997 15.5849 -1.73111
740 7 15.1655 17.5805 0.980717
741 6 14.5192 18.8591 1.1079
742 8 15.3995 17.079 -0.342245
743 7 15.0673 17.8419 -1.4775
744 6 14.4835 19.1253 -1.34032
745 1 15.3629 17.0012 1.91291
746 1 14.1797 19.1394 2.07572
747 1 15.1093 17.3371 -2.42997
748 1 13.8459 20.6572 0.0604501
749 1 14.2968 19.6809 -2.2231
750 13 12.1661 12.3793 2.81688
751 5 15.2455 12.2471 2.72906
752 5 11.9027 9.3197 2.55486
753 5 11.9402 12.2938 5.90163
754 5 12.4046 15.5215 2.75065
755 11 15.8095 8.42894 5.55652
756 9 14.7588 9.45132 5.96575
757 2 14.5451 9.32867 7.03426
758 2 13.8105 9.25759 5.46626
759 2 15.2151 10.4414 5.76669
760 4 16.7353 8.74077 5.91501
761 4 15.8488 8.25115 4.50761
762 4 15.6538 7.48619 6.01445
763 12 15.9042 14.7956 5.37927
764 6 16.2651 19.8609 5.82249
765 4 15.8563 14.9021 4.33917
766 4 15.7817 13.7915 5.49115
767 4 16.8474 14.9281 5.73846
768 10 14.9367 15.6702 6.18311
769 3 13.9508 15.4893 5.87438
770 3 15.0177 15.403 7.24617
771 7 15.4868 17.7449 4.90437
772 6 15.8598 19.0964 4.73884
773 8 15.4875 17.1401 6.11972
774 7 15.7343 17.9598 7.21204
775 6 16.1399 19.2704 7.10077
776 1 15.1443 17.1603 4.04958
777 1 15.8987 19.5973 3.71025
778 1 15.8698 17.4882 8.22508
779 1 16.4406 20.9534 5.74935
780 1 16.4453 19.8225 8.00586
781 13 18.2442 -0.05485 8.81869
782 5 21.284 0.0986029 8.56301
783 5 18.6898 -3.11015 8.60129
784 5 18.2495 -0.120633 11.5695
785 12 21.299 -2.53636 11.156
786 6 19.903 -7.30337 12.5799
787 4 21.4709 -2.86806 10.1532
788 4 21.6898 -1.60619 11.2272
789 4 20.2371 -2.55542 11.1693
790 10 -2.85125 -3.45552 12.1258
791 3 -1.76448 -3.59015 11.8438
792 3 -2.78177 -2.93679 13.0659
793 7 21.1409 -5.48128 13.5462
794 6 20.3078 -6.58934 13.7171
795 8 21.3515 -4.83785 12.2811
796 7 20.7907 -5.50133 11.1923
797 6 20.174 -6.76749 11.3009
798 1 21.6645 -5.13788 14.4774
799 1 20.0151 -6.9359 14.673
800 1 21.0696 -5.07496 10.1774
801 1 19.3716 -8.21047 12.6329
802 1 19.701 -7.22466 10.4325
803 13 18.1462 -0.314475 14.8029
804 5 21.2823 -0.25032 14.814
805 5 17.8868 -3.27518 14.5221
806 5 18.0541 -0.164395 17.7997
807 12 -3.01041 -2.68481 17.949
808 6 20.6778 -7.64749 18.4906
809 4 21.6677 -1.67426 17.8137
810 4 -2.00868 -2.87514 17.659
811 4 -2.98212 -2.70254 18.9911
812 10 20.6706 -3.60247 17.3084
813 3 19.6606 -3.17283 17.4685
814 3 20.7523 -3.53171 16.2027
815 7 -2.87026 -5.67766 17.8209
816 6 -2.90138 -7.00565 18.3801
817 8 20.7368 -5.03082 17.6824
818 7 19.4935 -5.65798 17.9375
819 6 19.4418 -7.02833 18.1775
820 1 -1.96037 -5.04305 17.7576
821 1 -1.99377 -7.50151 18.6224
822 1 18.5652 -5.10276 17.8315
823 1 20.6233 -8.72161 18.7155
824 1 18.5016 -7.49905 18.3803
825 13 18.4103 -0.228219 21.0751
826 5 21.4309 -0.391297 20.8044
827 5 17.944 -3.34939 21.0643
828 5 18.4581 -0.125958 -0.792503
829 12 21.499 -2.65105 -0.425163
830 6 -1.99065 -7.67216 -0.052711
831 4 21.2732 -2.90025 0.591439
832 4 21.1852 -1.68626 -0.686799
833 4 -2.25168 -2.55633 -0.447306
834 10 21.0909 -3.82769 -1.2968
835 3 19.9983 -3.96102 -1.1968
836 3 21.2602 -3.47951 -2.31862
837 7 20.9439 -6.13597 -0.378281
838 6 21.4312 -7.38662 0.0654968
839 8 -3.02577 -5.1565 -0.886723
840 7 -1.64115 -5.40547 -0.81989
841 6 -1.10433 -6.641 -0.424047
842 1 19.8542 -5.86437 -0.338463
843 1 20.7288 -8.1867 0.459787
844 1 -0.89428 -4.6596 -1.08654
845 1 -1.64187 -8.60257 0.216243
846 1 -0.00350186 -6.80215 -0.296382
847 13 18.029 -0.33636 2.27414
848 5 21.3308 0.0904835 2.09928
849 5 18.17 -3.57876 1.80298
850 5 18.1448 -0.373329 5.28614
851 12 21.6016 -2.68702 5.56505
852 6 -2.87369 -7.76116 4.95252
853 4 21.3364 -1.72011 5.35825
854 4 -2.18709 -2.84552 5.33379
855 4 21.4952 -2.6637 6.61808
856 10 20.7194 -3.6177 4.80211
857 3 19.6898 -3.4283 5.16036
858 3 20.7727 -3.18694 3.74038
859 7 21.4379 -5.68908 6.11957
860 6 -2.84877 -6.97673 6.11566
861 8 20.9961 -5.11358 4.9518
862 7 20.9742 -5.90086 3.76148
863 6 21.4623 -7.23098 3.77837
864 1 21.4309 -5.15315 7.05333
865 1 -2.46838 -7.50317 7.01903
866 1 20.8426 -5.40018 2.80436
867 1 -2.52012 -8.85395 5.01951
868 1 21.4964 -7.75239 2.83402
869 13 18.2016 6.16305 8.88025
870 5 21.3645 6.07352 8.80091
871 5 18.4009 3.06291 8.72108
872 5 17.9862 6.1651 11.9008
873 11 -3.00737 2.81406 10.9852
874 9 20.7708 3.15333 12.0334
875 2 20.9566 2.61773 13.0568
876 2 19.7903 2.90138 11.6517
877 2 20.8662 4.18408 12.247
878 4 -2.09096 3.22017 11.1552
879 4 21.4793 3.12994 9.98109
880 4 -2.88485 1.76731 10.8697
881 13 18.1787 6.16735 14.9857
882 5 21.3137 6.36779 14.9325
883 5 18.102 3.00658 14.9078
884 5 17.9006 6.232 18.1605
885 11 -3.00457 2.62206 18.4998
886 9 20.8952 3.51745 17.5809
887 2 21.1034 3.24596 16.5206
888 2 21.1622 4.62815 17.756
889 2 19.841 3.31386 17.8848
890 4 -3.02219 2.97363 19.4907
891 4 -2.07401 2.70905 18.1396
892 4 21.5064 1.61663 18.5174
893 13 18.1341 5.80303 21.2082
894 5 21.189 5.81805 21.0668
895 5 18.2622 2.9016 21.0269
896 5 18.035 5.85571 -0.439363
897 11 20.5672 3.10979 -0.322208
898 9 -2.92105 2.65609 -1.13759
899 2 -2.07079 3.01306 -0.588202
900 2 -2.97852 3.00993 -2.16031
901 2 -2.78131 1.59471 -0.949036
902 4 19.7157 2.7933 -0.790948
903 4 20.5308 4.16016 -0.152663
904 4 20.5348 2.61195 0.652857
905 13 18.2044 5.8525 2.63206
906 5 21.3028 6.02901 2.63348
907 5 18.1889 2.98446 2.46667
908 5 18.2703 6.0943 5.67827
909 11 20.7889 3.57273 5.89284
910 9 21.5025 2.51362 5.05298
911 2 21.0552 1.50333 5.18412
912 2 -2.28894 2.59391 5.41059
913 2 21.447 2.85441 3.98474
914 4 21.0728 3.55575 6.87486
915 4 19.821 3.64875 5.78322
916 4 21.0596 4.51799 5.58983
917 13 18.1957 12.3705 8.88356
918 5 21.3443 12.5532 8.65107
919 5 18.2342 9.15793 8.63861
920 5 18.4176 11.9983 11.8925
921 5 18.3473 15.5328 9.09468
922 11 20.844 8.69496 11.9199
923 9 -2.90592 9.72545 11.5631
924 2 21.5929 10.7425 11.9153
925 2 -2.79522 9.66371 10.4614
926 2 -1.92335 9.31232 11.9389
927 4 19.8553 8.89954 11.6756
928 4 20.7382 8.5247 12.9301
929 4 21.0808 7.75672 11.559
930 12 21.1354 14.688 11.6672
931 6 20.2705 19.6886 11.4784
932 4 21.3063 13.7176 11.9778
933 4 21.3351 14.7234 10.6405
934 4 20.1086 14.8704 11.8151
935 10 -2.90473 15.7816 12.3058
936 3 -2.86589 15.5066 13.3817
937 3 -1.79453 15.6858 12.0686
938 7 20.8611 18.0296 13.04
939 6 20.2005 19.2099 12.7611
940 8 21.3946 17.2117 11.9947
941 7 21.2371 17.5966 10.6561
942 6 20.6407 18.862 10.4174
943 1 20.8012 17.5469 14.0268
944 1 19.7961 19.7517 13.5525
945 1 21.521 16.8299 9.87211
946 1 19.6425 20.5341 11.2739
947 1 20.4201 19.0933 9.409
948 13 18.366 12.3072 15.0136
949 5 21.5938 12.3745 14.8253
950 5 18.3513 9.35701 14.9175
951 5 18.3682 12.1769 18.0561
952 5 18.5117 15.2618 14.7156
953 11 20.6937 8.70773 18.5591
954 9 21.6591 9.6529 17.7337
955 2 -2.09065 9.32614 17.8201
956 2 21.5678 10.6428 18.2195
957 2 21.4427 9.64645 16.6727
958 4 20.7104 7.67029 18.4115
959 4 19.6707 8.9313 18.3762
960 4 20.8521 8.66701 19.5547
961 12 -2.86412 14.8056 17.3033
962 6 20.248 19.7132 17.8136
963 4 -1.90586 15.2061 17.4955
964 4 -2.98262 15.1226 16.327
965 4 -2.83583 13.7601 17.3973
966 10 20.9447 15.4449 18.2059
967 3 20.0682 14.8836 17.9843
968 3 21.1336 15.2337 19.2617
969 7 -3.0901 17.8591 17.8333
970 6 21.5473 19.2452 17.9067
971 8 20.6913 16.9637 17.9483
972 7 19.3501 17.4615 18.0289
973 6 19.1535 18.878 17.8897
974 1 -2.08079 17.3362 17.8697