LAMMPS data file via write_data, version 23 Jun 2022, timestep = 210000

1040 atoms
13 atom types
800 bonds
12 bond types
1344 angles
19 angle types
1536 dihedrals
17 dihedral types

-3.1032830319133278 21.703283031913426 xlo xhi
-69.09525944153546 81.49525944153547 ylo yhi
-3.1412794295632405 21.741279429562937 zlo zhi

Masses

1 1.008
2 1.008
3 1.008
4 1.008
5 126.90447
6 12.01
7 12.01
8 12.01
9 12.01
10 12.01
11 14.01
12 14.01
13 207.2

Bond Coeffs # harmonic

1 345.8 1.086
2 345.8 1.086
3 338.7 1.091
4 338.7 1.091
5 373.2 1.0304
6 373.2 1.0304
7 461.1 1.3984
8 461.1 1.3984
9 461.1 1.3984
10 321 1.5156
11 283.3 1.511
12 283.3 1.511

Angle Coeffs # harmonic

1 48.18 119.88
2 48.18 119.88
3 48.18 119.88
4 48.18 119.88
5 39.22 109.75
6 48.65 108.01
7 39.22 109.75
8 46.62 111.45
9 48.65 108.01
10 40.58 108.3
11 45.85 110.11
12 40.58 108.3
13 45.85 110.11
14 66.62 120.02
15 66.62 120.02
16 66.62 120.02
17 66.62 120.02
18 63.53 120.77
19 64.77 113.8

Dihedral Coeffs # opls

1 0 7.25 0 0
2 0 7.25 0 0
3 0 7.25 0 0
4 0 7.25 0 0
5 0 7.25 0 0
6 0 7.25 0 0
7 0 7.25 0 0
8 0 7.25 0 0
9 0 0 0.311111 0
10 0 0 0 0
11 0 0 0.311111 0
12 0 0 0.311111 0
13 0 7.25 0 0
14 0 7.25 0 0
15 0 7.25 0 0
16 0 7.25 0 0
17 0 0 0 0

Atoms # full

321 25 6 -0.0919721111111111 8.099675094631896 -6.813119266052286 -0.7533979035847292 0 0 1
840 65 7 -0.2114301111111111 -1.9028447770313108 -5.738498253555429 -0.7481130913656276 1 0 1
320 25 7 -0.2114301111111111 8.107863780796075 -5.410051937258019 -0.5422238556351308 0 0 1
59 5 8 0.1075718888888889 2.6723240637700854 -4.963677554049932 -1.1626506754409156 0 0 1
65 5 1 0.1558858888888889 3.901485659289409 -8.625346007650604 -1.033264641932165 0 0 1
66 5 1 0.1558858888888889 3.121679391327339 -7.399073096917434 1.1785369915332629 0 0 1
844 65 1 0.1558858888888889 -0.9400416191196056 -5.293717041223351 -1.0382236917485332 1 0 1
58 5 6 -0.0919721111111111 3.601677697510722 -6.91345493407259 -2.1639872483320417 0 0 1
50 5 6 -0.0919721111111111 3.528862805255553 -7.610588372530277 -0.959582246142175 0 0 1
61 5 6 -0.0919721111111111 3.0306078731723725 -6.966765978126736 0.18504653451730832 0 0 1
846 65 1 0.1558858888888889 -1.126059278731276 -7.600420011391725 -0.3851885516702122 1 0 1
64 5 1 0.1558858888888889 2.314580798728428 -5.0825894677401715 0.9868312319802848 0 0 1
324 25 1 0.1558858888888889 7.156583537347774 -4.944203733802036 -0.29562228965261267 0 0 1
63 5 1 0.1558858888888889 4.006754658978242 -7.365621836305509 -3.065328038579843 0 0 1
57 5 7 -0.2114301111111111 3.1610810563273173 -5.637774222598494 -2.2724693626742583 0 0 1
60 5 7 -0.2114301111111111 2.610744215912401 -5.6855072489300555 0.1092946342317127 0 0 1
326 25 1 0.1558858888888889 7.1339040937445155 -7.332752723959623 -0.5872770170864742 0 0 1
69 6 5 -1 -0.6564709839635945 -3.2894106002691803 2.4960738249004284 0 0 1
834 65 10 -0.1364491111111111 -2.878301873242012 -3.4584203939907043 -1.0653929717594788 1 0 1
54 5 10 -0.1364491111111111 2.373092042924302 -3.508887061935189 -1.330776001614373 0 0 1
841 65 6 -0.0919721111111111 -2.039977805776814 -7.042000962975774 -0.45793433916075965 1 0 1
329 26 5 -1 5.5538632310114044 -3.2372717065582246 2.1055908746401997 0 0 1
55 5 3 0.1739998888888889 1.3027520906652086 -3.546318387754746 -0.9552196969422434 0 0 1
839 65 8 0.1075718888888889 -2.9674638668397906 -4.913523105579027 -0.6933430505428393 1 0 1
316 25 3 0.1739998888888889 9.073497460507783 -3.2984885777334365 0.9920957735949031 0 0 1
868 67 1 0.1558858888888889 -2.226799569102582 -7.49871119118475 3.0436509562795635 1 0 1
82 7 7 -0.2114301111111111 1.8373215057839467 -5.274517012947565 5.2402650964354995 0 0 1
336 27 10 -0.1364491111111111 8.152125981470473 -3.4498553874407802 5.115965251088996 0 0 1
84 7 1 0.1558858888888889 5.249072511900129 -5.385026654280699 5.642391230649536 0 0 1
342 27 7 -0.2114301111111111 8.31608892182729 -5.802873753821838 4.335069304834023 0 0 1
339 27 7 -0.2114301111111111 8.768444941911612 -5.2948767796159295 6.695852699656552 0 0 1
83 7 6 -0.0919721111111111 1.6233166994276977 -6.582290545059474 4.732489183929651 0 0 1
81 7 8 0.1075718888888889 3.1037299629028468 -4.829406692359571 5.5740308155172515 0 0 1
340 27 6 -0.0919721111111111 9.144641087346505 -6.595898663302979 6.885285681136791 0 0 1
86 7 1 0.1558858888888889 1.0152359838501868 -4.555084148768812 5.258716902694808 0 0 1
80 7 6 -0.0919721111111111 4.013920186273873 -7.013679020962037 4.89751531106259 0 0 1
76 7 10 -0.1364491111111111 3.213486621345206 -3.457848596919092 6.189378174062236 0 0 1
79 7 7 -0.2114301111111111 4.196186581733038 -5.690634245987601 5.428865675725485 0 0 1
85 7 1 0.1558858888888889 4.870282483838283 -7.664699578271024 4.78667910482315 0 0 1
72 7 6 -0.0919721111111111 2.7082876021939555 -7.512018042852174 4.622169925838472 0 0 1
87 7 1 0.1558858888888889 2.6743340179151307 -8.483919450922151 4.095363773003718 0 0 1
341 27 8 0.1075718888888889 8.46540021532845 -4.899899347493037 5.3978035575646945 0 0 1
88 7 1 0.1558858888888889 0.6225402702064677 -6.861324250674648 4.294300081596621 0 0 1
338 27 3 0.1739998888888889 8.374274121929611 -3.278182404256851 4.054440269092489 0 0 1
78 7 3 0.1739998888888889 2.817994425823627 -3.558271501418591 7.218935004935394 0 0 1
346 27 1 0.1558858888888889 8.031730253485499 -5.42210729145436 3.328260000580088 0 0 1
344 27 1 0.1558858888888889 8.881594726725586 -4.5709049170115 7.523603440672218 0 0 1
860 67 6 -0.0919721111111111 -2.277867272863079 -6.633270613063502 6.32874952069869 1 0 1
348 27 1 0.1558858888888889 8.658340929923048 -7.881893522046136 3.730992785556564 0 0 1
332 27 6 -0.0919721111111111 9.052392717773088 -7.540951502857051 5.856902597994135 0 0 1
852 67 6 -0.0919721111111111 -1.9818088850100333 -7.315947998126989 5.158652430214439 1 0 1
343 27 6 -0.0919721111111111 8.741357841969615 -7.184501568849668 4.564303412196115 0 0 1
863 67 6 -0.0919721111111111 -2.506848078906144 -6.9328857500306365 3.9033390350714585 1 0 1
865 67 1 0.1558858888888889 -1.8490697308320865 -6.928192587556279 7.275181784826536 1 0 1
867 67 1 0.1558858888888889 -1.4209105506425488 -8.259878115406632 5.248675339579399 1 0 1
337 27 3 0.1739998888888889 7.071402352453167 -3.232884045862446 5.216270691263351 0 0 1
3 0 5 -1 -0.5858578235288312 -3.271415153086971 8.363285690960542 0 0 0
13 1 7 -0.2114301111111111 2.614713680275448 -5.555279401246464 10.354306245993687 0 0 0
16 1 7 -0.2114301111111111 2.8914164949230465 -5.618889715818399 12.805775064352742 0 0 0
10 1 10 -0.1364491111111111 2.2031805492848573 -3.507580626017834 11.651437296659287 0 0 0
281 21 1 0.1558858888888889 7.808580060321379 -8.540661289488487 12.045716087171247 0 0 0
277 21 6 -0.0919721111111111 7.309488268565744 -6.50277877496128 12.004650193317262 0 0 0
15 1 8 0.1075718888888889 2.5376868906529837 -4.976738815739389 11.595159441916351 0 0 0
800 61 1 0.1558858888888889 -1.1790771453082067 -4.543875204647559 12.151876240492298 1 0 0
14 1 6 -0.0919721111111111 3.1682017190860834 -6.831145495038355 10.344995840169188 0 0 0
280 21 1 0.1558858888888889 7.066135474049728 -4.345397097435331 12.0849566101168 0 0 0
20 1 1 0.1558858888888889 2.861356325874568 -5.057876777827451 13.798475642248736 0 0 0
6 1 6 -0.0919721111111111 3.520737183910003 -7.530587989518549 11.48876100317614 0 0 0
797 61 6 -0.0919721111111111 -1.4673295325624935 -6.458383187676679 11.234281742770547 1 0 0
282 21 1 0.1558858888888889 6.258610603596715 -6.616628495929355 12.152390219862536 0 0 0
22 1 1 0.1558858888888889 3.4345907580477437 -7.438897769358061 13.718422513841158 0 0 0
17 1 6 -0.0919721111111111 3.2168664969475267 -6.95939352006017 12.754964265049196 0 0 0
276 21 7 -0.2114301111111111 7.830774353629168 -5.178482272056423 12.026914686942549 0 0 0
802 61 1 0.1558858888888889 -0.4130702252856261 -6.6069515651906885 11.228669023293994 1 0 0
796 61 7 -0.2114301111111111 -1.9147154336657701 -5.243678504725395 11.743292472621109 1 0 0
21 1 1 0.1558858888888889 3.996228164812809 -8.563996693654081 11.469634779081114 0 0 0
801 61 1 0.1558858888888889 -2.0408840057134534 -8.07889082319175 9.967827221576936 1 0 0
786 61 6 -0.0919721111111111 -2.439774797554156 -7.294333242601963 10.549613001241433 1 0 0
285 22 5 -1 5.880606798413774 -3.3868643436956067 15.132753300746193 0 0 0
25 2 5 -1 -0.4396649712086513 -3.4823361000941007 15.163261289532395 0 0 0
266 21 6 -0.0919721111111111 8.207076298027992 -7.559256667847367 11.92661576728371 0 0 0
275 21 8 0.1075718888888889 9.222342393858511 -4.888635745877066 12.002477609401625 0 0 0
18 1 1 0.1558858888888889 2.4056065221889624 -4.986714468496156 9.516633170368362 0 0 0
11 1 3 0.1739998888888889 1.3839212616039505 -3.344059342078581 12.375766983644725 0 0 0
12 1 3 0.1739998888888889 1.870662029168008 -3.219268408709361 10.68530652758285 0 0 0
19 1 1 0.1558858888888889 3.24619493450306 -7.349064054170397 9.43168257906285 0 0 0
41 3 1 0.1558858888888889 5.474338757373703 -7.451981119865337 18.088736735081127 0 0 0
38 3 7 -0.2114301111111111 2.0467536513540674 -5.780282207966231 18.382002459476055 0 0 0
35 3 7 -0.2114301111111111 4.430597366634064 -5.669848253997752 18.330815596080182 0 0 0
28 3 6 -0.0919721111111111 3.380972400824904 -7.80647600609624 18.28387679256507 0 0 0
32 3 10 -0.1364491111111111 3.1898578077587314 -3.5207634823360685 18.46560080411422 0 0 0
36 3 6 -0.0919721111111111 4.501862045039503 -7.035915994289069 18.208542811736486 0 0 0
43 3 1 0.1558858888888889 3.4391099760931017 -8.853811075425272 18.398922023655192 0 0 0
40 3 1 0.1558858888888889 5.2636397830021595 -4.996854609559404 18.21765671419388 0 0 0
39 3 6 -0.0919721111111111 2.1413828796743286 -7.155091224257737 18.297525537330028 0 0 0
297 23 8 0.1075718888888889 9.245580630330307 -4.923038448750281 17.74343808880615 0 0 0
288 23 6 -0.0919721111111111 8.762850236803905 -7.7624297985815325 17.87151780327297 0 0 0
44 3 1 0.1558858888888889 1.226225702709357 -7.693194701748345 18.338240173932586 0 0 0
37 3 8 0.1075718888888889 3.2165823045654363 -5.007604494282068 18.431100544316372 0 0 0
295 23 7 -0.2114301111111111 9.176220072407359 -5.589299029379712 18.95598111223553 0 0 0
42 3 1 0.1558858888888889 1.053621880542055 -5.287372990268284 18.434761816669525 0 0 0
823 63 1 0.1558858888888889 -2.743187162019074 -9.001434345478906 17.342133327700537 1 0 0
298 23 7 -0.2114301111111111 9.178472811209668 -5.742300499828267 16.590296400613134 0 0 0
301 23 1 0.1558858888888889 8.722623854395419 -7.36871721957194 19.984715011910296 0 0 0
303 23 1 0.1558858888888889 8.535597511489568 -8.796568672402644 17.95050843790635 0 0 0
299 23 6 -0.0919721111111111 8.996848420793587 -7.1403382328956075 16.64998828025758 0 0 0
296 23 6 -0.0919721111111111 8.800941100469359 -6.929942074657544 19.01882100508346 0 0 0
304 23 1 0.1558858888888889 8.861415673344995 -7.631958637301395 15.737358023492773 0 0 0
62 5 1 0.1558858888888889 3.2782565474153307 -5.085477264941309 21.71639998719968 0 0 0
808 63 6 -0.0919721111111111 -2.9947457109837483 -7.9470680202081105 17.631926751160922 1 0 0
307 24 5 -1 6.231025933471873 -3.235262266015081 21.278514488859813 0 0 0
47 4 5 -1 -0.3117230640027533 -3.246307204904024 20.78253794722189 0 0 0
300 23 1 0.1558858888888889 9.181348443869078 -5.065068098183066 19.93676871613025 0 0 0
824 63 1 0.1558858888888889 -3.0703883198699593 -8.306688273968946 19.730496376475443 1 0 0
821 63 1 0.1558858888888889 -2.699366350917142 -7.296874079525829 15.560280986794103 1 0 0
116 10 5 -1 -0.4437218535866647 5.964706504441852 -0.46134443563076966 0 0 1
327 26 13 2 5.686214075114287 -0.19305615635927462 2.4648142008618525 0 0 1
48 4 5 -1 -0.2834765677695986 -0.249106848498188 -0.8455235178182188 0 0 1
125 11 13 2 -0.6043470734438822 6.192540837519063 2.643557381599411 0 0 1
328 26 5 -1 8.721188782632321 0.08324882414135923 2.071401204320105 0 0 1
68 6 5 -1 2.582905128190919 -0.21067936102980375 2.2370047963783257 0 0 1
53 5 4 0.3535128888888889 2.894512413107317 -2.872373151206351 0.5931896817175323 0 0 1
121 10 2 0.158913 2.8241354488379025 3.2177965099668318 0.8279656052367494 0 0 1
127 11 5 -1 -0.8078496621231452 2.9752860456670858 2.379062591137425 0 0 1
122 10 4 0.328167 2.477693597082944 2.9356323865575393 -2.160982331930533 0 0 1
124 10 4 0.328167 2.598647938119287 1.5769812223331048 -1.2116815132915546 0 0 1
67 6 13 2 -0.4911791243326229 -0.24917183856563663 2.205340976761149 0 0 1
118 10 9 -0.182564 3.1107860812379826 3.3928023713778654 -0.2084617102879348 0 0 1
309 25 12 -0.4603141111111111 8.391148577700546 -2.3582697981380796 -0.7895472001289184 0 0 1
313 25 4 0.3535128888888889 7.447225367636381 -2.5578345372497675 -0.41069969777040477 0 0 1
49 5 12 -0.4603141111111111 3.1081096476077694 -2.573098659691889 -0.38300770463400824 0 0 1
308 24 5 -1 5.781354998913283 -0.13540268128338775 -0.7656172903611024 0 0 1
387 31 5 -1 5.730565851535704 2.912652823879752 2.507844904839887 0 0 1
119 10 2 0.158913 2.8849708438702857 4.446052480958129 -0.38580667832463084 0 0 1
52 5 4 0.3535128888888889 4.12877668323237 -2.548778133650534 -0.49975026162636216 0 0 1
120 10 2 0.158913 4.16647437103814 3.1497522274624012 -0.40860205961728124 0 0 1
385 31 13 2 5.837765800168594 6.039379458662398 2.7064795384803815 0 0 1
123 10 4 0.328167 1.2575923709038823 2.6589342262142037 -1.2721551979264067 0 0 1
51 5 4 0.3535128888888889 2.859687144705988 -1.5295116164024911 -0.44329037580654895 0 0 1
383 30 4 0.328167 7.4866779974609265 3.2957980679490997 0.23619527393957032 0 0 1
899 70 2 0.158913 -2.1397788402279887 2.7346372295619936 -0.7790991868967869 1 0 1
126 11 5 -1 2.665529592275909 5.984723729102374 2.83262391310453 0 0 1
117 10 11 -0.278676 2.269861575970252 2.5416889751447407 -1.1999493490602544 0 0 1
386 31 5 -1 9.041913595047902 5.877102543177574 2.654123608883543 0 0 1
382 30 4 0.328167 8.922426894664135 3.565337354873661 1.0362108785143425 0 0 1
377 30 11 -0.278676 8.413210957548264 3.6544718729654457 0.14756463177091858 0 0 1
384 30 4 0.328167 8.295628038023654 4.638150841726814 -0.09182684472753051 0 0 1
378 30 9 -0.182564 9.182638930241305 2.780892121062383 -0.8419434150032593 0 0 1
311 25 4 0.3535128888888889 8.345026254449651 -2.6742925286152843 -1.7617441060519623 0 0 1
312 25 4 0.3535128888888889 8.530511528148473 -1.2810676791092745 -0.8071519803042738 0 0 1
381 30 2 0.158913 9.187954718107465 3.2429207516794527 -1.8473084724014064 0 0 1
379 30 2 0.158913 8.664861318193395 1.8179381336062437 -0.8088102994218663 0 0 1
836 65 3 0.1739998888888889 -1.8493868453464244 -3.172761105081037 -1.2155691539032603 1 0 1
56 5 3 0.1739998888888889 2.468383931446251 -3.157681860963111 -2.3603875076963483 0 0 1
349 28 13 2 6.037180372998475 5.903230513900399 8.986742339957445 0 0 0
914 71 4 0.328167 -1.8998582022549237 2.4672104595229416 5.742989277452411 1 0 1
854 67 4 0.3535128888888889 -2.4435668744926753 -2.3931921894754304 5.508938181431 1 0 1
393 31 2 0.158913 7.507366555798562 2.86017093894147 5.576044793172835 0 0 1
131 11 2 0.158913 2.7150006681122805 3.061803541925119 6.729607022151914 0 0 1
390 31 9 -0.182564 8.45737637108547 2.5199148162028853 5.251514895510481 0 0 1
134 11 4 0.328167 2.0670024092528143 1.8707795099900835 4.625655043213072 0 0 1
330 26 5 -1 5.755820129946377 -0.20990996668330283 5.575613890676804 0 0 1
350 28 5 -1 9.045795745439273 5.886728994806074 8.888074408143098 0 0 0
351 28 5 -1 6.065022210010633 2.836236278149702 8.89639258285922 0 0 0
90 8 5 -1 2.9759734110068377 6.128975706028697 8.909242561814391 0 0 0
71 7 12 -0.4603141111111111 2.278442641027134 -2.522589265986127 5.536385063475134 0 0 1
331 27 12 -0.4603141111111111 9.056610564057696 -2.5888213753184024 5.936681965044597 0 0 1
130 11 9 -0.182564 3.097503541783437 3.4935931876307715 5.74871645712065 0 0 1
73 7 4 0.3535128888888889 1.234367951467929 -2.6229450997388475 5.6933550938230795 0 0 1
132 11 2 0.158913 3.080614365746765 4.600827319114128 5.844023516935334 0 0 1
128 11 5 -1 -0.21841345569386797 5.883690483281366 5.626775169297883 0 0 1
91 8 5 -1 -0.20248168652780293 2.8390556018466766 8.465097593943344 0 0 0
135 11 4 0.328167 2.4063985746353773 3.1910496421935686 3.791186465754073 0 0 1
2 0 5 -1 2.763069652185923 -0.41648759110423733 8.672470446710296 0 0 0
392 31 2 0.158913 8.523924997178481 2.8498699181888427 4.254528291648464 0 0 1
129 11 11 -0.278676 2.1361716970582774 2.89991016594966 4.708324397698717 0 0 1
263 20 5 -1 6.102340757710672 -3.156294488569302 8.740950041646949 0 0 0
133 11 2 0.158913 4.162645745899589 3.188941092550319 5.565197874315261 0 0 1
136 11 4 0.328167 1.145166258700542 3.131546565246393 4.883971518509847 0 0 1
1 0 13 2 -0.24431194138433632 -0.09825896442461482 8.590716735902934 0 0 0
89 8 13 2 -0.17790283081177494 5.95116808592305 8.833334910262877 0 0 0
391 31 2 0.158913 8.488659648784223 1.4589218986373724 5.259638788096125 0 0 1
261 20 13 2 5.805839478845472 -0.1988685109280817 8.577712186782001 0 0 0
70 6 5 -1 -0.4262650741309573 -0.1282455125361131 5.4500398138138655 0 0 1
75 7 4 0.3535128888888889 2.522598408247755 -1.5757071535927822 5.881103720232028 0 0 1
262 20 5 -1 8.99945638698749 0.0507112495121517 8.626085733010433 0 0 0
388 31 5 -1 5.958119078010014 6.163174452191019 5.738070452173776 0 0 1
909 71 11 -0.278676 -2.9087360136129243 2.3893467871278227 5.992052315912091 1 0 1
333 27 4 0.3535128888888889 8.977903928707688 -1.586766089157091 5.678740593572648 0 0 1
74 7 4 0.3535128888888889 2.478005620620552 -2.5671375785534973 4.5142453566340315 0 0 1
335 27 4 0.3535128888888889 8.772850263124631 -2.5487583940668355 6.9378521700026194 0 0 1
916 71 4 0.328167 -2.9047312134900682 2.5340634483340456 7.035906092370367 1 0 1
77 7 3 0.1739998888888889 4.252296349339491 -3.0754131322827725 6.189705556023435 0 0 1
96 8 2 0.158913 2.9082011198289415 1.7226725863147567 11.949123705212006 0 0 0
9 1 4 0.3535128888888889 3.3687204690854267 -1.6224097116020784 11.908666031247721 0 0 0
283 22 13 2 5.94044394560195 -0.36868307277992957 15.012228205832368 0 0 0
358 28 4 0.328167 9.050095742681389 1.3397891519338894 11.419998187175935 0 0 0
92 8 5 -1 -0.06533476822152826 5.689353889584087 11.904295441982248 0 0 0
267 21 4 0.3535128888888889 9.226862432525385 -2.8561446000904778 10.108262658233642 0 0 0
879 68 4 0.328167 -1.9429248584467023 3.2866574784296056 12.118059311682774 1 0 0
93 8 11 -0.278676 3.09984519114284 3.8467678133601684 12.492915988314463 0 0 0
95 8 2 0.158913 1.4999354903638267 2.6515377825879844 11.411794336577708 0 0 0
355 28 2 0.158913 7.3677320395895745 2.956995726214151 12.247677523397922 0 0 0
362 29 5 -1 9.112818328143485 5.831494636991079 15.264299778185496 0 0 0
284 22 5 -1 8.999914529442444 -0.11689148491963051 15.034359671608799 0 0 0
23 2 13 2 -0.45693583279595884 -0.5007316688592836 14.749994118997606 0 0 0
269 21 4 0.3535128888888889 8.040885599658127 -2.5704224452566207 11.11043310967715 0 0 0
98 8 4 0.328167 2.6913433059298386 3.7506824590739627 13.406396988057585 0 0 0
264 20 5 -1 6.049761102047602 -0.04846289810647949 11.763374416414914 0 0 0
4 0 5 -1 -0.5691222664553145 -0.07007759406828391 11.63026654410079 0 0 0
102 9 5 -1 3.093443146313929 6.170471070425848 15.364076547403922 0 0 0
5 1 12 -0.4603141111111111 3.496618034929424 -2.6922643548824348 11.774592129892623 0 0 0
100 8 4 0.328167 4.115228923872466 3.8443523676255933 12.611421240405653 0 0 0
356 28 2 0.158913 8.67477362042419 4.187485569601164 12.117751648672622 0 0 0
99 8 4 0.328167 2.9080530864372682 4.811053445264039 12.086208795160282 0 0 0
24 2 5 -1 2.860105322276799 -0.5699835139541874 14.65105776053496 0 0 0
97 8 2 0.158913 3.086444973527655 2.757358202228956 10.591324532979394 0 0 0
94 8 9 -0.182564 2.5890078036788298 2.69693585627575 11.512908659375409 0 0 0
103 9 5 -1 -0.027436806534354864 2.9042317146638212 14.809632513373774 0 0 0
873 68 11 -0.278676 -2.967099766686239 3.2985462355490114 12.369594646834853 1 0 0
7 1 4 0.3535128888888889 4.198402027311693 -2.7531300588106 11.085605089715713 0 0 0
354 28 9 -0.182564 8.42386967744994 3.1639625451283853 12.36119675445682 0 0 0
363 29 5 -1 5.694874234342112 2.872112487904135 15.182934862832116 0 0 0
101 9 13 2 -0.16178656437241967 6.090221264848573 14.905320999889875 0 0 0
361 29 13 2 5.995288108355985 6.084111444731804 15.395075462592834 0 0 0
265 21 12 -0.4603141111111111 9.035119536789928 -2.5957500351137512 11.062868924253037 0 0 0
787 61 4 0.3535128888888889 -2.4057003207981422 -2.6459733694398624 10.82944015750909 1 0 0
357 28 2 0.158913 8.74447896103436 2.9586442355747127 13.376875822339205 0 0 0
8 1 4 0.3535128888888889 3.954495899860711 -2.920180353805463 12.697363104828577 0 0 0
360 28 4 0.328167 8.97139426674938 2.6067072051458537 10.426748699415374 0 0 0
268 21 4 0.3535128888888889 9.282080273848953 -1.5823160567112589 11.225068057943655 0 0 0
353 28 11 -0.278676 9.29067078758532 2.3422109228112276 11.383424780625377 0 0 0
287 23 12 -0.4603141111111111 8.97436985911904 -2.46178964664991 18.598270403252616 0 0 0
810 63 4 0.3535128888888889 -2.3527372595172333 -3.0932489969727626 17.32568227768473 1 0 0
107 9 2 0.158913 2.706665379629539 3.0093074985348527 19.355105595678612 0 0 0
369 29 2 0.158913 7.650383022179379 2.3934111653149213 17.97630827200821 0 0 0
289 23 4 0.3535128888888889 7.959888818046976 -2.3621508456074247 18.604535613870084 0 0 0
109 9 2 0.158913 4.157634799274925 2.9384999300051873 18.439857635620342 0 0 0
366 29 9 -0.182564 8.716641207068008 2.4817100471377245 17.917011547929246 0 0 0
370 29 4 0.328167 8.893017656727642 4.465017874205987 18.56325395189162 0 0 0
305 24 13 2 5.908528895878071 -0.12494503565536733 21.125386887759074 0 0 0
115 10 5 -1 -0.3553051682102099 2.8440888262532615 21.16460698131174 0 0 0
33 3 3 0.1739998888888889 4.273539350095513 -3.168959372980913 18.3725707975052 0 0 0
26 2 5 -1 -0.16478812343082774 -0.07456327640273877 17.8820937720162 0 0 0
46 4 5 -1 2.7256547481996867 0.0542370543787585 21.11844838751872 0 0 0
30 3 4 0.3535128888888889 2.3174702478450815 -1.8261061636856264 17.535567109287452 0 0 0
889 69 2 0.158913 -1.912751663135167 3.136720396969487 17.981960998763174 1 0 0
286 22 5 -1 5.859088132834825 -0.2597964415206115 18.091550295042754 0 0 0
306 24 5 -1 8.970745040243004 0.042455631854860613 21.078011312378205 0 0 0
365 29 11 -0.278676 9.08209003482922 3.538506150896399 18.943070269958334 0 0 0
31 3 4 0.3535128888888889 1.310069786578461 -3.0718874283750397 17.662023469670324 0 0 0
373 30 13 2 5.944621670230823 5.986043050889426 21.511845936847685 0 0 0
112 9 4 0.328167 2.928738996978181 2.4491572015973584 16.513167148898916 0 0 0
110 9 4 0.328167 1.409738073648093 2.591380224228072 17.25042251791465 0 0 0
375 30 5 -1 5.992267922958327 3.0076248817710014 21.61339665081991 0 0 0
108 9 2 0.158913 3.0502894558750637 4.24544071048321 18.184541194145957 0 0 0
105 9 11 -0.278676 2.4330375843613603 2.331412574621052 17.40125603129704 0 0 0
886 69 9 -0.182564 -2.938125397355322 3.266069265045114 17.54536454968336 1 0 0
368 29 2 0.158913 8.91679233771208 2.847684746139765 16.891825844318028 0 0 0
45 4 13 2 -0.2324484786297418 -0.3572150687042356 21.067296424753653 0 0 0
106 9 9 -0.182564 3.104933062074698 3.1969529835165993 18.379281215416817 0 0 0
27 3 12 -0.4603141111111111 2.3130700711055163 -2.843148841703315 17.417563576168632 0 0 0
113 10 13 2 -0.3631023900766125 5.711163368179783 21.213158398469492 0 0 0
111 9 4 0.328167 2.456199517976941 1.2830550751829566 17.631243973945026 0 0 0
364 29 5 -1 6.225067370045937 6.011822767017468 18.267994273049318 0 0 0
372 29 4 0.328167 8.596833673272894 3.495574458696292 19.905124834966514 0 0 0
34 3 3 0.1739998888888889 2.83567693861579 -3.203117127074552 19.393507467396784 0 0 0
114 10 5 -1 2.8306199766225286 5.940531409051255 21.249880473491434 0 0 0
367 29 2 0.158913 9.250562727549875 1.5218490391677 18.058624092389888 0 0 0
291 23 4 0.3535128888888889 9.22314117145892 -2.6990629348774933 19.53922406281648 0 0 0
29 3 4 0.3535128888888889 2.5247850453922855 -3.0966315642236246 16.404737096099662 0 0 0
468 36 2 0.158913 7.532968666780944 9.367923574013421 -0.6830182015219699 0 0 1
209 16 4 0.328167 4.145871444231212 9.290288138886973 -1.1220136640379141 0 0 1
476 37 4 0.3535128888888889 8.738479667342089 13.922769632538353 -1.178579072836761 0 0 1
219 17 3 0.1739998888888889 0.8644545009137585 15.43115885734112 -0.7703259312572567 0 0 1
491 38 5 -1 8.694179015433182 12.523636007946674 2.740426880796444 0 0 1
490 38 13 2 5.388919853949464 12.229792194396184 2.4585776691420627 0 0 1
202 16 5 -1 -0.592640792646387 12.060855645178913 -0.6436935814732071 0 0 1
232 18 5 -1 -0.797384456627426 9.110161807667502 2.6437517572953113 0 0 1
206 16 2 0.158913 1.3791346055626523 8.71995614882002 -0.09516594803232789 0 0 1
207 16 2 0.158913 2.7482215567238444 8.827898055100464 0.9203893216390308 0 0 1
210 16 4 0.328167 2.883266868312269 10.333536841763634 -0.9606910284140184 0 0 1
211 16 4 0.328167 2.8012683882614575 9.1843359838073 -2.111840478358202 0 0 1
214 17 4 0.3535128888888889 3.725959962555897 14.605630419869836 -0.30615411628766226 0 0 1
215 17 4 0.3535128888888889 2.437586926588924 13.651625717917632 -0.2830942384141994 0 0 1
231 18 5 -1 2.452870393313557 11.945177046097053 2.4087603378237095 0 0 1
212 17 12 -0.4603141111111111 2.7410302370746185 14.640984136972776 -0.13386494815280997 0 0 1
205 16 9 -0.182564 2.4365976724892815 8.47567413053473 -0.05892364578257868 0 0 1
216 17 4 0.3535128888888889 2.5845697510616223 14.78905880257017 0.9254855321227319 0 0 1
208 16 2 0.158913 2.601620067915974 7.469939012210009 -0.2565301181283774 0 0 1
230 18 13 2 -0.7038254094884918 12.225463731606284 2.5029898071444023 0 0 1
492 38 5 -1 5.8936891058134115 9.181040109295953 2.4609680882336202 0 0 1
996 77 4 0.3535128888888889 -2.964264533462122 14.014526309486753 -1.2729070667145785 1 0 1
204 16 11 -0.278676 3.077502398867239 9.349676628354727 -1.0798130919074143 0 0 1
472 37 12 -0.4603141111111111 8.175347738031814 14.558455804501362 -0.5245731619647187 0 0 1
462 36 5 -1 5.5786118544144205 12.148004774931344 -0.4540769086732172 0 0 1
475 37 4 0.3535128888888889 7.892059755914182 13.938502618261765 0.2145436042061229 0 0 1
474 37 4 0.3535128888888889 7.31129418108097 14.75489090910551 -0.9097550899988742 0 0 1
376 30 5 -1 5.829501197264083 6.2940868090640905 -0.3965510828677117 0 0 1
494 38 5 -1 5.306223336043869 15.294560661789998 2.3241290544046658 0 0 1
465 36 9 -0.182564 8.577302361558758 9.548154629493778 -0.7325773031622985 0 0 1
467 36 2 0.158913 8.833344328878121 10.47415278733294 -0.15892869107639215 0 0 1
234 18 5 -1 -0.45712317877392333 15.2087212772985 2.4769737099651454 0 0 1
990 76 4 0.328167 -2.179044996569264 8.584446398786385 -0.7872802384589296 1 0 1
466 36 2 0.158913 8.784970957298277 9.78123905668818 -1.773023211533323 0 0 1
469 36 4 0.328167 9.141295257576747 8.162721549469444 0.7662785098819233 0 0 1
998 77 3 0.1739998888888889 -3.094252780289856 15.349689931358812 0.7792278877106691 1 0 1
507 39 4 0.3535128888888889 8.889497143444968 13.518503142416767 6.232154564740073 0 0 1
500 38 4 0.328167 7.588234369199455 9.749916572714332 5.2509578268838215 0 0 1
1025 79 4 0.3535128888888889 -2.3561211206305646 14.81020570132837 5.427701254706144 1 0 1
139 12 5 -1 -0.3391549671786677 8.974958455035114 8.789784448166776 0 0 0
246 19 4 0.3535128888888889 2.447819428969674 14.434153423501147 4.071959616006205 0 0 1
505 39 4 0.3535128888888889 8.549864887605581 14.717223624083891 7.415950296419983 0 0 1
1019 78 2 0.158913 -2.263348675102851 8.780592667067348 5.647778854538778 1 0 1
398 32 5 -1 8.761150035700371 12.021488888032348 8.933763468242915 0 0 0
240 18 4 0.328167 2.7188306308475094 7.551810090719111 6.326687102212255 0 0 1
141 12 5 -1 -0.4872110430726859 15.491721574464185 8.383095152132768 0 0 0
493 38 5 -1 5.405273728377216 12.318415028599993 5.448153477936019 0 0 1
495 38 11 -0.278676 8.6619877352252 9.910092946869803 5.308689450172004 0 0 1
502 38 4 0.328167 8.811394917985384 10.866211320199293 5.739121184751209 0 0 1
245 19 4 0.3535128888888889 2.2887651506199784 13.510267998873582 5.513509537975158 0 0 1
503 39 12 -0.4603141111111111 8.953855654994225 14.565549309300966 6.468289789183221 0 0 1
238 18 2 0.158913 1.293587645734921 9.383236156204852 5.446108052242328 0 0 1
237 18 2 0.158913 2.66475336972409 10.399269892056546 5.407024693425403 0 0 1
137 12 13 2 -0.39496491186932237 12.192798824150918 8.533462164808098 0 0 0
243 19 12 -0.4603141111111111 2.2068667625737257 14.485766441355326 5.097858232687576 0 0 1
233 18 5 -1 -0.46913225316647306 12.336215545070456 5.554834755146684 0 0 1
138 12 5 -1 2.669912748148978 12.1338750962558 8.745844253077752 0 0 0
235 18 11 -0.278676 3.080029327603132 8.479459347626252 6.290330147527037 0 0 1
239 18 2 0.158913 2.7205665223860964 9.102816707722276 4.202148264484468 0 0 1
241 18 4 0.328167 3.0680084479040706 8.79737156342212 7.303601128252331 0 0 1
399 32 5 -1 5.913309397265317 8.967374697267475 8.599994102272989 0 0 0
236 18 9 -0.182564 2.381207215993947 9.344694934907967 5.249065182428344 0 0 1
247 19 4 0.3535128888888889 1.2116172667721217 14.75578783433572 5.238615987337918 0 0 1
249 19 3 0.1739998888888889 2.8763939162728374 15.251856335642017 7.0939614838255425 0 0 1
397 32 13 2 5.683232812882919 12.025768972820861 8.791321818025256 0 0 0
242 18 4 0.328167 4.060192695794496 8.375230266239464 6.066245854029368 0 0 1
501 38 4 0.328167 8.982968800084791 9.99361545640995 4.356056447080666 0 0 1
401 32 5 -1 5.779243191586312 15.141102979411546 8.90720108166481 0 0 0
250 19 3 0.1739998888888889 3.958902162579812 15.213362301013294 5.6473699893811515 0 0 1
248 19 10 -0.1364491111111111 2.9492131808210544 15.462726446025936 5.970393340848089 0 0 1
497 38 2 0.158913 9.095642413940807 8.85140856998384 7.127368505858967 0 0 1
510 39 3 0.1739998888888889 7.408504936690292 14.870350478909288 4.955658571255459 0 0 1
496 38 9 -0.182564 9.283558564315966 8.800994378948975 6.085059442048553 0 0 1