LAMMPS (23 Jun 2022)
OMP_NUM_THREADS environment is not set. Defaulting to 1 thread. (src/src/comm.cpp:98)
  using 1 OpenMP thread(s) per MPI task
Reading data file ...
  orthogonal box = (-3.1 -69.095259 -3.1) to (21.7 81.495259 21.7)
  2 by 16 by 4 MPI processor grid
  reading atoms ...
  1040 atoms
  scanning bonds ...
  4 = max bonds/atom
  scanning angles ...
  11 = max angles/atom
  scanning dihedrals ...
  21 = max dihedrals/atom
  reading bonds ...
  800 bonds
  reading angles ...
  1344 angles
  reading dihedrals ...
  1536 dihedrals
Finding 1-2 1-3 1-4 neighbors ...
  special bond factors lj:    0        0        0.5     
  special bond factors coul:  0        0        0.8333333333333334
     4 = max # of 1-2 neighbors
     7 = max # of 1-3 neighbors
    14 = max # of 1-4 neighbors
    16 = max # of special neighbors
  special bonds CPU = 0.005 seconds
  read_data CPU = 0.046 seconds
PPPM initialization ...
  using 12-bit tables for long-range coulomb (src/src/kspace.cpp:342)
  G vector (1/distance) = 0.16060837
  grid = 8 30 8
  stencil order = 5
  estimated absolute RMS force accuracy = 0.029618246
  estimated relative force accuracy = 8.9194468e-05
  using double precision FFTW3
  3d grid and FFT values/proc = 504 16
Generated 0 of 78 mixed pair_coeff terms from arithmetic mixing rule
Neighbor list info ...
  update every 1 steps, delay 10 steps, check yes
  max neighbors/atom: 10000, page size: 100000
  master list distance cutoff = 17
  ghost atom cutoff = 17
  binsize = 8.5, bins = 3 18 3
  3 neighbor lists, perpetual/occasional/extra = 3 0 0
  (1) pair buck/coul/long, perpetual, skip from (3)
      attributes: half, newton off
      pair build: skip
      stencil: none
      bin: none
  (2) pair lj/cut/coul/long, perpetual, skip from (3)
      attributes: half, newton off
      pair build: skip
      stencil: none
      bin: none
  (3) neighbor class addition, perpetual
      attributes: half, newton off
      pair build: half/bin/newtoff
      stencil: full/bin/3d
      bin: standard
Setting up Verlet run ...
  Unit style    : real
  Current step  : 0
  Time step     : 1
Per MPI rank memory allocation (min/avg/max) = 19.58 | 19.73 | 20.15 Mbytes
   Step          Temp          Volume        Density         TotEng         PotEng         E_bond        E_angle        E_dihed         E_coul         E_long         E_vdwl        Enthalpy        Press     
         0      298.000000   92619.192734       0.622799  -23223.575832  -24146.500202      22.970839      26.874948       4.403687  -18457.474877  -11846.078831    6102.804032    5940.011180   21590.567550
      1000       99.485835   92619.192734       0.622799  -30183.992727  -30492.106492      11.531836      43.011506      29.679710  -18702.411577  -11928.621641      54.703674  -29630.553437     409.725607
      2000       72.736854   92619.192734       0.622799  -30335.088171  -30560.358692      11.977839      40.733477      21.363085  -18554.451759  -11928.637379    -151.343955  -30664.602456    -243.948058
      3000       65.198202   92619.192734       0.622799  -30417.472059  -30619.394910      12.602363      44.776025      20.242205  -18578.180933  -11930.472117    -188.362454  -31236.592623    -606.416414
      4000       55.430594   92619.192734       0.622799  -30474.160265  -30645.832230       9.655081      37.889361      16.454498  -18732.843934  -11928.435309     -48.551926  -30289.512941     136.699252
      5000       51.515984   92619.192734       0.622799  -30506.308552  -30665.856731       9.231700      39.978059      21.313686  -18793.506115  -11930.955951     -11.918110  -30120.498934     285.624968
      6000       47.588708   92619.192734       0.622799  -30534.827094  -30682.212255      10.702778      39.631390      16.906768  -18649.944224  -11930.442803    -169.066164  -30889.501061    -262.574430
      7000       42.199569   92619.192734       0.622799  -30556.756690  -30687.451356      11.481515      38.315147      20.879079  -18632.967309  -11931.251633    -193.908157  -31053.500509    -367.752464
      8000       40.583495   92619.192734       0.622799  -30573.983482  -30699.673068      10.264887      38.530806      17.427446  -18695.190959  -11928.622621    -142.082627  -30796.078031    -164.422413
      9000       37.675451   92619.192734       0.622799  -30587.500701  -30704.183897       9.848635      37.925935      17.835074  -18735.814894  -11929.850518    -104.128130  -30592.156814      -3.447042
     10000       38.432776   92619.192734       0.622799  -30600.920650  -30719.949325      10.903459      39.502693      17.710021  -18705.871931  -11930.122825    -152.070742  -30884.698393    -210.088099
Loop time of 17.6084 on 128 procs for 10000 steps with 1040 atoms

Performance: 49.067 ns/day, 0.489 hours/ns, 567.910 timesteps/s
99.5% CPU use with 128 MPI tasks x 1 OpenMP threads

MPI task timing breakdown:
Section |  min time  |  avg time  |  max time  |%varavg| %total
---------------------------------------------------------------
Pair    | 0.0020702  | 2.1609     | 13.195     | 280.8 | 12.27
Bond    | 0.00087924 | 0.059811   | 0.29319    |  42.0 |  0.34
Kspace  | 2.6086     | 14.119     | 16.519     | 116.8 | 80.18
Neigh   | 0.10751    | 0.11728    | 0.12548    |   1.9 |  0.67
Comm    | 0.0024531  | 0.1845     | 0.57968    |  48.2 |  1.05
Output  | 0.011501   | 0.011523   | 0.011857   |   0.0 |  0.07
Modify  | 0.86714    | 0.8763     | 0.88587    |   0.5 |  4.98
Other   |            | 0.0794     |            |       |  0.45

Nlocal:          8.125 ave          45 max           0 min
Histogram: 96 0 0 1 4 8 2 1 4 12
Nghost:        846.797 ave        2935 max           0 min
Histogram: 64 16 0 0 16 0 0 16 0 16
Neighs:              0 ave           0 max           0 min
Histogram: 128 0 0 0 0 0 0 0 0 0

Total # of neighbors = 0
Ave neighs/atom = 0
Ave special neighs/atom = 6.8923077
Neighbor list builds = 74
Dangerous builds = 0
PPPM initialization ...
  using 12-bit tables for long-range coulomb (src/src/kspace.cpp:342)
  G vector (1/distance) = 0.16060837
  grid = 8 30 8
  stencil order = 5
  estimated absolute RMS force accuracy = 0.029618246
  estimated relative force accuracy = 8.9194468e-05
  using double precision FFTW3
  3d grid and FFT values/proc = 504 16
Generated 0 of 78 mixed pair_coeff terms from arithmetic mixing rule
Setting up Verlet run ...
  Unit style    : real
  Current step  : 10000
  Time step     : 1
Per MPI rank memory allocation (min/avg/max) = 19.58 | 19.73 | 20.16 Mbytes
   Step          Temp          Volume        Density         TotEng         PotEng         E_bond        E_angle        E_dihed         E_coul         E_long         E_vdwl        Enthalpy        Press     
     10000       38.432776   92619.192734       0.622799  -30600.920650  -30719.949325      10.903459      39.502693      17.710021  -18705.871931  -11930.122825    -152.070742  -30884.698393    -210.088099
     11000      155.481125   94687.615530       0.609194  -29713.347828  -30194.882457      20.495586      70.264381      66.547655  -18313.051577  -11927.302667    -111.835834  -29994.910277    -203.894572
     12000      282.091785   95779.278425       0.602251  -29007.759629  -29881.415276      47.132716     127.357964      86.979548  -18223.347625  -11923.986936       4.449057  -28749.193349     185.107679
     13000      297.960843   95017.644967       0.607078  -28905.386131  -29828.189229      64.916681     146.331170     109.335947  -18215.982625  -11925.806554      -6.983849  -28855.793553      35.787926
     14000      303.003393   95986.460618       0.600951  -28849.462317  -29787.882502      72.000861     174.289074     114.435701  -18124.523979  -11926.144864     -97.939295  -28991.518181    -101.478327
     15000      289.470800   95146.988703       0.606253  -28914.590022  -29811.098935      92.120736     185.432033     131.633252  -18318.691568  -11923.117237      21.523850  -28783.101249      94.758403
     16000      308.029913   94611.651243       0.609683  -28810.356314  -29764.343944     112.215375     203.098651     112.120945  -18261.660233  -11926.448573      -3.670110  -28751.533077      42.631284
     17000      304.238644   94743.917059       0.608832  -28914.835420  -29857.081254     118.861729     199.928906     105.834935  -18334.805995  -11927.365830     -19.534999  -28955.904938     -29.722982
     18000      306.348443   94645.744733       0.609464  -28898.377212  -29847.157225     135.614031     208.698402     111.450017  -18340.450986  -11926.562080     -35.906609  -28646.472137     182.498768
     19000      297.111606   94258.421783       0.611968  -28899.431887  -29819.604846     150.367461     235.035003      98.536529  -18337.186746  -11926.329223     -40.027870  -28978.533176     -57.542339
     20000      299.214171   94401.231578       0.611042  -28941.236845  -29867.921578     155.414869     214.485115     113.352613  -18350.522843  -11926.070073     -74.581260  -28613.371002     238.145634
     21000      302.569105   93673.332159       0.615791  -28886.187897  -29823.263067     165.852325     239.295652     123.362973  -18386.097690  -11922.898016     -42.778312  -29214.275788    -240.158710
     22000      293.301474   93933.782591       0.614083  -28897.066057  -29805.438800     169.734017     246.458323     121.749286  -18359.165519  -11925.020508     -59.194399  -28832.439153      47.175406
     23000      318.746124   93402.503169       0.617576  -28873.158616  -29860.335010     174.447519     249.760582     113.470952  -18425.065927  -11927.150371     -45.797765  -28395.717141     350.498156
     24000      299.231220   93890.168019       0.614368  -28910.001240  -29836.738775     191.672303     243.841518     104.544205  -18387.549670  -11927.011829     -62.235302  -28904.869480       3.747748
     25000      303.508837   94554.297957       0.610053  -28921.246627  -29861.232205     194.531438     250.676138      99.799998  -18315.796192  -11927.583705    -162.859881  -29464.680984    -394.085021
     26000      297.267126   93895.663104       0.614332  -28947.438270  -29868.092882     195.155381     254.638223     108.442764  -18417.119261  -11927.705103     -81.504887  -28849.277954      71.682728
     27000      286.527506   93587.912533       0.616353  -28952.414691  -29839.808038     183.997549     263.840302     107.101778  -18460.998791  -11927.152249      -6.596627  -28573.988350     277.259036
     28000      300.494337   93702.718743       0.615597  -28889.032695  -29819.682180     203.751344     260.940557     105.202404  -18401.180688  -11927.912318     -60.483478  -28633.145174     187.249655
     29000      285.024885   93775.112764       0.615122  -28945.169935  -29827.909573     207.287951     279.126507     118.421292  -18408.365821  -11924.906392     -99.473110  -29416.969950    -344.980435
     30000      300.395356   92977.504583       0.620399  -28886.952643  -29817.295577     224.941254     277.238366     108.302853  -18498.596023  -11927.555133      -1.626894  -28581.062172     225.586015
     31000      302.744516   94024.121470       0.613493  -28915.280791  -29852.899218     210.663946     299.862937     101.154871  -18399.238983  -11926.564606    -138.777384  -29336.789682    -307.391296
     32000      298.633816   93541.701063       0.616657  -28910.254345  -29835.141681     228.639374     288.742165      93.917552  -18491.601422  -11927.993639     -26.845712  -28946.456718     -26.537248
     33000      292.791498   93350.014088       0.617923  -28966.925903  -29873.719221     216.275845     279.363918     101.140260  -18466.683467  -11929.862126     -73.953652  -29110.723671    -105.623820
     34000      306.832240   94166.511330       0.612565  -28878.632453  -29828.910815     226.398726     290.396120     101.022815  -18388.131014  -11924.028104    -134.569357  -29251.965589    -271.846764
     35000      289.473674   93383.831936       0.617700  -28951.201415  -29847.719226     209.077775     302.295178     103.386257  -18473.673234  -11926.705895     -62.099307  -28838.932022      82.435409
     36000      293.753595   93353.903196       0.617898  -28906.747384  -29816.520376     240.939063     293.294323     112.283654  -18478.804242  -11924.308755     -59.924418  -29093.135588    -136.902082
     37000      307.153520   93195.740781       0.618946  -28972.074185  -29923.347571     235.183362     269.916470      95.902002  -18509.024269  -11926.791210     -88.533925  -29543.034077    -420.081588
     38000      285.317521   93441.225711       0.617320  -28958.062750  -29841.708701     244.903160     288.685201      93.142455  -18504.636849  -11922.031957     -41.770710  -29524.697494    -415.804116
     39000      289.314872   92938.480905       0.620660  -28990.462899  -29886.488891     227.077557     298.116319      92.257792  -18545.172376  -11926.102233     -32.665951  -29156.386293    -122.415430
     40000      301.844654   93726.681440       0.615440  -28925.636289  -29860.467790     222.568508     271.111863     110.512076  -18480.048528  -11925.085069     -59.526641  -28988.688906     -46.127932
     41000      300.446669   93499.080837       0.616938  -28944.992546  -29875.494401     232.733550     310.772075     100.284663  -18483.397910  -11927.786444    -108.100335  -29587.882610    -471.469370
     42000      294.634678   92850.182643       0.621250  -28990.676653  -29903.178413     229.948400     272.890777      91.362718  -18489.463681  -11929.450666     -78.465961  -28768.054144     164.403259
     43000      300.106854   93014.415789       0.620153  -28951.095440  -29880.544867     222.225882     294.004286      93.178559  -18550.133439  -11925.335535     -14.484619  -28899.611168      37.953202
     44000      304.151079   92502.725391       0.623583  -28959.477020  -29901.451661     211.650887     284.661050     109.369877  -18562.536298  -11927.799484     -16.797693  -28564.377307     292.870950
     45000      311.789690   92931.960819       0.620703  -28887.786012  -29853.417901     258.594667     277.137312     110.953157  -18531.593596  -11926.831313     -41.678128  -28881.422713       4.695062
     46000      294.750999   92569.308738       0.623135  -28966.261078  -29879.123090     231.525996     314.423414     101.316378  -18530.957516  -11927.149215     -68.282148  -29093.096312     -93.950047
     47000      305.574235   93167.088488       0.619137  -28882.470919  -29828.853161     232.952315     303.766588     109.054876  -18482.572307  -11926.316774     -65.737860  -28514.296749     270.966064
     48000      301.758119   93305.000493       0.618221  -28946.021288  -29880.584784     246.692947     293.821318     106.753832  -18514.461827  -11928.480121     -84.910933  -28970.271355     -17.821003
     49000      300.928454   93201.740401       0.618906  -28894.160400  -29826.154371     244.878708     320.567549     112.923417  -18529.637255  -11926.795220     -48.091570  -29011.940745     -86.650867
     50000      289.493391   93711.245092       0.615541  -28972.250193  -29868.829071     237.745587     273.253105     103.545350  -18439.070413  -11926.362202    -117.940498  -29298.671802    -238.842332
     51000      295.361223   93067.431412       0.619800  -28975.231583  -29889.983498     227.684708     297.422620     101.052704  -18530.944251  -11927.803130     -57.396148  -28334.791285     471.851167
     52000      297.844923   92771.573410       0.621776  -28920.899980  -29843.344068     245.132584     307.010345     110.925728  -18542.292630  -11928.644099     -35.475996  -28708.164102     157.235255
     53000      303.849780   92851.848069       0.621239  -28946.892533  -29887.934034     238.787256     284.473395     107.627233  -18491.344456  -11928.452434     -99.025027  -28813.205553      98.723984
     54000      303.175969   92528.485666       0.623410  -28960.950555  -29899.905218     240.889316     290.658130      99.824944  -18618.069818  -11927.670475      14.462685  -28735.353808     167.178910
     55000      286.107074   92986.426552       0.620340  -28989.988123  -29876.079366     229.267169     309.413123     100.563551  -18539.150843  -11923.673187     -52.499180  -29033.811561     -32.315509
     56000      297.202763   92696.868087       0.622277  -28927.341633  -29847.796911     242.123297     283.769724     123.106973  -18488.558046  -11926.932544     -81.306315  -28998.822265     -52.874641
     57000      304.992110   93389.245735       0.617664  -28913.136094  -29857.715461     251.281546     295.008931     114.623451  -18517.337960  -11926.167562     -75.123866  -29436.394848    -384.187955
     58000      294.568088   93135.558312       0.619346  -28943.730112  -29856.025639     246.515202     299.339016     102.383090  -18482.412073  -11927.665975     -94.184899  -28967.242372     -17.310235
     59000      303.049261   93131.970976       0.619370  -28934.227674  -29872.789915     239.538943     280.301875     116.785675  -18487.900729  -11928.432030     -93.083649  -28896.860906      27.511284
     60000      281.171612   93232.512604       0.618702  -28976.324174  -29847.129989     265.616746     293.182612     103.287975  -18528.756824  -11927.987309     -52.473190  -29081.373703     -77.259311
     61000      286.162226   92607.188309       0.622880  -28946.148646  -29832.410700     257.336641     292.622824     129.295068  -18560.252400  -11928.874809     -22.538025  -28102.476876     624.673280
     62000      295.094917   92524.176813       0.623439  -28983.430525  -29897.357673     242.418186     280.767810     108.531298  -18531.329814  -11924.054569     -73.690586  -29188.310405    -151.833706
     63000      297.179374   93289.540965       0.618324  -28927.462976  -29847.845817     256.084444     293.085378     112.350915  -18544.407823  -11926.803981     -38.154750  -28720.195320     152.343065
     64000      303.639780   91991.462874       0.627049  -28942.172313  -29882.563430     253.128910     287.836728     106.066665  -18607.764664  -11924.950268       3.119199  -28866.248147      56.592205
     65000      294.017854   93303.904287       0.618229  -28983.653731  -29894.245149     245.011498     282.645587     116.474254  -18513.406875  -11928.824794     -96.144819  -29309.330526    -239.337698
     66000      298.750671   92540.689156       0.623327  -28915.022874  -29840.272119     265.155981     300.360010     109.265347  -18554.994343  -11926.260501     -33.798613  -29314.562510    -296.040583
     67000      286.457149   93166.218171       0.619142  -28975.945033  -29863.120479     246.757628     301.183644     110.184573  -18501.004673  -11926.536451     -93.705201  -29492.213057    -379.962618
     68000      287.767566   93006.057878       0.620209  -28967.720565  -29858.954455     268.873586     278.807468     116.139919  -18554.317759  -11926.807946     -41.649722  -28737.471185     169.750609
     69000      306.867726   92188.228681       0.625711  -28921.970814  -29872.359079     254.549206     292.690440     115.998819  -18550.376181  -11927.040414     -58.180949  -29007.228015     -63.413205
     70000      295.008466   92996.631879       0.620271  -28923.952228  -29837.611633     263.492650     302.441287     109.941975  -18585.405807  -11926.874757      -1.206981  -28446.882258     351.753940
     71000      294.793456   93276.099317       0.618413  -28949.912812  -29862.906316     249.023402     304.053277     115.305334  -18507.679837  -11929.216680     -94.391812  -29343.645311    -289.437633
     72000      312.833118   92925.371978       0.620747  -28899.714287  -29868.577738     233.940392     317.297716      96.475717  -18517.792482  -11925.764746     -72.734335  -28856.651501      31.775466
     73000      292.578058   92945.629073       0.620612  -28959.252848  -29865.385128     238.208365     304.069654     111.181532  -18523.692575  -11928.140685     -67.011419  -28763.744464     144.231635
     74000      295.317747   92486.134482       0.623695  -28938.695609  -29853.312876     272.899938     303.028177     108.233627  -18577.917957  -11928.557074     -30.999587  -28421.770368     383.243874
     75000      305.982871   93206.887114       0.618872  -28891.457474  -29839.105288     260.764501     302.726510     106.552886  -18531.562529  -11929.972889     -47.613767  -29005.130338     -83.624380
     76000      302.421155   92381.433296       0.624402  -28962.607604  -29899.224563     249.789346     282.727173     103.955623  -18555.176816  -11925.491028     -55.028862  -29166.853873    -151.598026
     77000      304.147060   93507.805864       0.616881  -28911.263591  -29853.225785     252.280961     308.906350     115.648182  -18533.463419  -11929.501181     -67.096679  -28951.022485     -29.154831
     78000      302.656973   92525.831573       0.623428  -28961.686681  -29899.033981     243.987542     299.697510     120.281299  -18593.658783  -11926.040000     -43.301549  -28759.782058     149.626107
     79000      301.794740   93206.493721       0.618875  -28915.478364  -29850.155276     233.761673     318.242135     119.686072  -18511.818745  -11931.047773     -78.978637  -29198.132778    -207.937928
     80000      307.743934   93304.938908       0.618222  -28934.481794  -29887.583729     274.885324     281.949484      96.307777  -18538.722636  -11926.967242     -75.036436  -28970.982146     -26.823567
     81000      301.561894   92909.222866       0.620855  -28906.687118  -29840.642894     272.068809     283.649078     114.077548  -18508.305910  -11926.908252     -75.224166  -29003.918366     -71.758135
     82000      293.885942   92841.125241       0.621310  -28963.696042  -29873.878920     253.780228     319.030730     102.153301  -18576.104091  -11926.063752     -46.675336  -29035.454708     -52.997828
     83000      306.943603   92903.710927       0.620892  -28910.462561  -29861.085821     270.576094     284.731025     112.285251  -18491.795632  -11929.738599    -107.143960  -29406.953514    -366.439589
     84000      298.764898   92206.156039       0.625589  -28995.147666  -29920.440972     262.897565     292.279404     106.667171  -18660.165323  -11926.938818       4.819028  -29056.987197     -45.986502
     85000      291.203088   92759.383401       0.621858  -28928.832571  -29830.706485     265.779748     330.817387     103.036472  -18553.754181  -11926.729989     -49.855922  -29347.347105    -309.369006
     86000      292.474712   93118.241415       0.619461  -28949.491108  -29855.303319     260.125080     300.853164     107.964472  -18552.349761  -11924.751571     -47.144703  -28993.608821     -32.486456
     87000      291.592095   92266.741316       0.625178  -28985.804723  -29888.883416     238.083970     308.165025     101.308478  -18577.390631  -11926.936552     -32.113705  -28741.824241     181.315117
     88000      295.747561   93033.211438       0.620028  -28925.932170  -29841.880599     271.814078     306.524305     104.434772  -18539.211245  -11928.357412     -57.085096  -29289.193989    -267.735433
     89000      312.426477   93327.327790       0.618074  -28895.927506  -29863.531564     262.241416     294.621994     102.342207  -18483.042247  -11926.065907    -113.629026  -28935.783068     -29.282235
     90000      304.076523   93001.264969       0.620241  -28952.361619  -29894.105356     239.406293     305.752832     108.467685  -18580.227863  -11928.964751     -38.539551  -28648.026864     224.381376
     91000      303.543724   93035.603449       0.620012  -28866.594512  -29806.688137     288.115095     327.607324     122.608245  -18495.426931  -11928.269274    -121.322596  -29265.555189    -294.039059
     92000      313.869342   92561.571433       0.623187  -28916.188255  -29888.260954     261.984358     294.985496     110.704918  -18627.760667  -11924.647118      -3.527941  -28987.228801     -52.625918
     93000      288.104162   92416.744055       0.624163  -28990.847994  -29883.124343     257.045665     297.788644     107.772287  -18620.266074  -11924.152468      -1.312397  -28909.583144      60.294290
     94000      306.645059   92971.812076       0.620437  -28874.509777  -29824.208426     261.538401     288.654689     125.590920  -18541.540970  -11925.891219     -32.560247  -28865.375918       6.736388
     95000      303.240098   93274.523514       0.618423  -28949.901841  -29889.055117     244.992028     284.128521     124.186814  -18502.550225  -11927.073800    -112.738456  -29813.904581    -635.149837
     96000      307.770090   92520.215439       0.623465  -28916.444246  -29869.627188     252.352439     307.959503     110.375473  -18555.506251  -11926.819263     -57.989090  -28735.566520     134.051774
     97000      284.237956   92692.908013       0.622304  -29000.303977  -29880.606447     235.424108     288.931702     104.478756  -18612.013414  -11927.497897      30.070298  -28574.509932     314.975799
     98000      301.619919   93206.856172       0.618872  -28917.115100  -29851.250581     258.084186     291.619851     125.683069  -18491.973663  -11926.135197    -108.528827  -29176.402859    -190.747241
     99000      293.236269   93016.361611       0.620140  -28938.137435  -29846.308236     254.791693     294.972185     121.242936  -18495.580345  -11924.909297     -96.825408  -29183.493288    -180.867771
    100000      294.706683   92887.935219       0.620997  -29006.611745  -29919.336508     223.746851     268.342748     120.826362  -18498.399505  -11926.312984    -107.539980  -28759.346631     182.527224
    101000      302.560112   93429.429226       0.617398  -28957.410275  -29894.457592     245.599743     282.594869     111.757720  -18510.861271  -11930.371801     -93.176852  -28854.364522      75.625892
    102000      294.997458   92364.514659       0.624516  -28952.122714  -29865.748027     246.192181     287.961397     118.719721  -18568.954720  -11926.048108     -23.618499  -28577.389338     278.189885
    103000      304.024580   93046.417488       0.619940  -28939.612450  -29881.195316     255.364016     297.071731     109.674805  -18577.014328  -11926.077249     -40.214292  -28802.564754     100.994144
    104000      293.472852   93181.089157       0.619044  -28971.008835  -29879.912348     264.608705     276.003224     103.612237  -18479.527025  -11927.162899    -117.446591  -29444.967063    -348.767810
    105000      305.078444   92550.500882       0.623261  -28909.168298  -29854.015045     251.330021     289.070573     110.150334  -18579.037717  -11930.075982       4.547725  -28846.806769      46.202139
    106000      298.539739   92607.942349       0.622875  -28970.884526  -29895.480499     244.075234     281.844508     112.621228  -18585.081392  -11928.036898     -20.903180  -27970.345559     740.815197
    107000      301.508568   92363.090533       0.624526  -28914.191975  -29847.982596     262.674214     286.235212     113.491040  -18541.708237  -11924.888106     -43.786719  -29086.401915    -127.845036
    108000      300.611024   92932.895906       0.620697  -28940.505411  -29871.516282     258.401266     287.488802     118.630116  -18546.284431  -11923.292830     -66.459206  -28863.199962      57.038060
    109000      296.932909   92448.831328       0.623947  -28965.726379  -29885.345902     237.234422     286.753854     126.766417  -18605.027989  -11924.437094      -6.635511  -28787.675415     132.058699
    110000      310.992750   92952.124303       0.620568  -28919.168330  -29882.332048     246.025562     283.582335     122.506138  -18502.915929  -11927.495055    -104.035098  -29077.031157    -116.451388
Loop time of 171.39 on 128 procs for 100000 steps with 1040 atoms

Performance: 50.411 ns/day, 0.476 hours/ns, 583.463 timesteps/s
99.5% CPU use with 128 MPI tasks x 1 OpenMP threads

MPI task timing breakdown:
Section |  min time  |  avg time  |  max time  |%varavg| %total
---------------------------------------------------------------
Pair    | 0.021911   | 20.948     | 120.61     | 861.0 | 12.22
Bond    | 0.0093469  | 0.55271    | 2.8755     | 128.6 |  0.32
Kspace  | 25.373     | 130.01     | 153.34     | 368.8 | 75.86
Neigh   | 3.8706     | 4.1583     | 4.3265     |   8.1 |  2.43
Comm    | 0.04984    | 1.975      | 6.1763     | 156.1 |  1.15
Output  | 0.089386   | 0.089621   | 0.11317    |   0.7 |  0.05
Modify  | 12.547     | 12.835     | 13.368     |   6.9 |  7.49
Other   |            | 0.8227     |            |       |  0.48

Nlocal:          8.125 ave          43 max           0 min
Histogram: 96 0 0 1 1 4 9 1 6 10
Nghost:        905.953 ave        3131 max           0 min
Histogram: 64 16 0 0 16 0 0 16 0 16
Neighs:              0 ave           0 max           0 min
Histogram: 128 0 0 0 0 0 0 0 0 0

Total # of neighbors = 0
Ave neighs/atom = 0
Ave special neighs/atom = 6.8923077
Neighbor list builds = 2796
Dangerous builds = 0
PPPM initialization ...
  using 12-bit tables for long-range coulomb (src/src/kspace.cpp:342)
  G vector (1/distance) = 0.16057325
  grid = 8 30 8
  stencil order = 5
  estimated absolute RMS force accuracy = 0.029640343
  estimated relative force accuracy = 8.9261013e-05
  using double precision FFTW3
  3d grid and FFT values/proc = 504 16
Generated 0 of 78 mixed pair_coeff terms from arithmetic mixing rule
Setting up Verlet run ...
  Unit style    : real
  Current step  : 110000
  Time step     : 1
Per MPI rank memory allocation (min/avg/max) = 19.58 | 19.73 | 20.16 Mbytes
   Step          Temp          Volume        Density         TotEng         PotEng         E_bond        E_angle        E_dihed         E_coul         E_long         E_vdwl        Enthalpy        Press     
    110000      310.992750   92952.124303       0.620568  -28919.186396  -29882.350114     246.025562     283.582335     122.506138  -18505.534591  -11924.894459    -104.035098  -29077.119637    -116.503330
    111000      291.596473   92952.124303       0.620568  -29007.960505  -29911.052755     240.782716     278.697313     121.450093  -18567.371537  -11925.395996     -59.215344  -28954.353851      39.544263
    112000      302.635156   92952.124303       0.620568  -28940.988374  -29878.268107     256.819903     309.066726     117.664884  -18564.963091  -11928.661991     -68.194538  -29295.140590    -261.249071
    113000      324.321318   92952.124303       0.620568  -28876.349674  -29880.792789     254.716828     293.042079     113.638772  -18505.896393  -11924.929552    -111.364524  -28854.429245      16.170143
    114000      291.395572   92952.124303       0.620568  -28958.080965  -29860.551013     284.649786     290.434902     114.778028  -18530.768957  -11925.670128     -93.974643  -29804.806333    -624.607741
    115000      293.503534   92952.124303       0.620568  -29014.816353  -29923.814891     252.673273     286.989344      90.845464  -18546.013006  -11925.362182     -82.947784  -28890.822033      91.467452
    116000      303.193730   92952.124303       0.620568  -28946.524492  -29885.534162     258.243844     287.114802     109.599030  -18551.382385  -11922.449830     -66.659623  -29215.290248    -198.261654
    117000      300.972655   92952.124303       0.620568  -28940.768781  -29872.899646     256.305628     321.282025     102.978328  -18497.509445  -11924.771101    -131.185080  -29066.173001     -92.507500
    118000      290.933189   92952.124303       0.620568  -29004.327574  -29905.365593     257.910988     289.965829     104.527621  -18614.152698  -11924.351461     -19.265872  -28791.589990     156.931098
    119000      312.161323   92952.124303       0.620568  -28907.691160  -29874.474020     260.718566     285.450657     115.652967  -18544.327155  -11920.897422     -71.071633  -29372.023453    -342.526108
    120000      294.548532   92952.124303       0.620568  -28986.768298  -29899.003257     257.882812     285.426202     125.247299  -18536.380670  -11926.965744    -104.213156  -29526.066534    -397.826575
    121000      289.518861   92952.124303       0.620568  -28949.968242  -29846.626002     272.056543     308.782482     108.256995  -18550.425071  -11923.294198     -62.002753  -29048.080009     -72.374552
    122000      289.781354   92952.124303       0.620568  -28925.381325  -29822.852042     265.333734     320.244869     123.013864  -18579.553250  -11924.735751     -27.155507  -29051.277121     -92.870123
    123000      297.290246   92952.124303       0.620568  -28971.297600  -29892.023818     274.885322     285.519490     122.036394  -18578.187500  -11926.280131     -69.997393  -29549.911826    -426.828979
    124000      294.011757   92952.124303       0.620568  -28976.678656  -29887.251191     265.452805     292.456887     115.739305  -18533.598125  -11924.650691    -102.651373  -28982.100725      -3.999723
    125000      305.332843   92952.124303       0.620568  -28923.232725  -29868.867360     245.008283     330.283107     102.194199  -18548.519821  -11923.474711     -74.358417  -29199.970789    -204.142622
    126000      289.612006   92952.124303       0.620568  -28965.770514  -29862.716748     249.246905     313.483592     112.206925  -18571.040234  -11925.602228     -41.011708  -28791.693745     128.412000
    127000      303.497312   92952.124303       0.620568  -28935.675639  -29875.625522     276.156468     299.421882     119.298952  -18572.026260  -11924.063328     -74.413237  -29014.341346     -58.029688
    128000      284.625548   92952.124303       0.620568  -28971.398997  -29852.901865     263.150115     319.270286     112.174317  -18560.086705  -11924.895962     -62.513916  -28869.575905      75.112302
    129000      298.765391   92952.124303       0.620568  -28927.719304  -29853.014136     275.069944     306.492517     106.086242  -18534.110670  -11925.637589     -80.914581  -29117.300130    -139.848947
    130000      299.787083   92952.124303       0.620568  -28926.501601  -29854.960676     283.131336     312.572063     102.296009  -18600.201041  -11923.802741     -28.956303  -28577.925334     257.135835
    131000      301.798718   92952.124303       0.620568  -28994.562243  -29929.251475     260.452163     281.190181     107.598059  -18576.740200  -11925.411436     -76.340242  -28832.589517     119.483155
    132000      310.618985   92952.124303       0.620568  -28867.377229  -29829.383374     280.076990     320.884659     114.824321  -18568.614507  -11924.978921     -51.575915  -29431.533038    -416.163373
    133000      298.950236   92952.124303       0.620568  -28941.250940  -29867.118247     271.290706     288.137992     121.538730  -18519.315643  -11922.503190    -106.266843  -29223.394950    -208.130451
    134000      288.633704   92952.124303       0.620568  -28997.257005  -29891.173377     243.249572     294.961424     129.348875  -18587.173740  -11925.619188     -45.940321  -28771.085609     166.840879
    135000      312.587311   92952.124303       0.620568  -28921.695000  -29889.797169     255.517522     289.486477     101.182733  -18539.672156  -11923.120537     -73.191209  -29330.614070    -301.649185
    136000      297.187505   92952.124303       0.620568  -28957.245526  -29877.653549     269.231227     270.073380     116.898272  -18511.513049  -11924.523113     -97.820266  -29004.353981     -34.750707
    137000      295.466867   92952.124303       0.620568  -28956.898518  -29871.977617     261.114813     297.782248     120.380575  -18549.430122  -11925.735089     -76.090043  -28809.294982     108.883370
    138000      284.568431   92952.124303       0.620568  -28981.925023  -29863.250994     273.810961     299.946492     118.655651  -18561.627546  -11926.882098     -67.154453  -29339.637351    -263.875275
    139000      291.814627   92952.124303       0.620568  -28935.076981  -29838.844869     278.009364     301.738160     117.552615  -18611.332199  -11926.844898       2.032090  -28460.714817     349.924888
    140000      293.242693   92952.124303       0.620568  -28983.496937  -29891.687634     266.092371     315.683286     105.357617  -18538.230564  -11926.139106    -114.451239  -29770.446161    -580.512402
    141000      292.655961   92952.124303       0.620568  -28950.255815  -29856.629367     254.414644     305.301078     118.757335  -18580.608063  -11925.315585     -29.178776  -28904.251295      33.936363
    142000      297.111684   92952.124303       0.620568  -28945.282017  -29865.455216     252.537267     305.296683     115.920638  -18586.099568  -11922.468850     -30.641385  -29215.056101    -199.005471
    143000      306.894522   92952.124303       0.620568  -28951.713531  -29902.184783     240.804069     288.233836     113.142353  -18512.100128  -11922.719020    -109.545892  -29021.580995     -51.539449
    144000      295.302986   92952.124303       0.620568  -28955.607676  -29870.179226     247.475506     293.873046     109.350920  -18608.677605  -11922.728018      10.526924  -28119.562324     616.729366
    145000      288.223525   92952.124303       0.620568  -29008.818789  -29901.464813     247.995339     269.758788     112.947250  -18569.292659  -11925.616832     -37.256698  -29002.078988       4.971780
    146000      298.839343   92952.124303       0.620568  -28965.715697  -29891.239562     251.899648     299.950657     109.490519  -18566.301592  -11926.720051     -59.558743  -29107.282619    -104.430313
    147000      292.075298   92952.124303       0.620568  -29008.957125  -29913.532327     230.146384     291.696376     109.102175  -18590.548786  -11923.958204     -29.970274  -28465.203767     401.113004
    148000      295.612205   92952.124303       0.620568  -28998.116409  -29913.645630     257.556609     294.783416     106.168059  -18620.535790  -11923.709499     -27.908427  -28803.917441     143.255633
    149000      290.588893   92952.124303       0.620568  -28969.402856  -29869.374570     257.067678     295.145049     114.864420  -18558.879503  -11926.375224     -51.196991  -29366.883713    -293.211506
    150000      290.684793   92952.124303       0.620568  -28948.119480  -29848.388202     260.012729     321.495463      97.944711  -18531.388984  -11924.580221     -71.871901  -29116.526634    -124.229669
    151000      294.868949   92952.124303       0.620568  -28995.318155  -29908.545464     246.832594     286.496150     101.092388  -18583.869710  -11924.949400     -34.147487  -28988.751074       4.844368
    152000      307.041308   92952.124303       0.620568  -28908.622510  -29859.548368     265.589214     305.238613     105.287226  -18583.502663  -11923.088184     -29.072574  -29020.146443     -82.268366
    153000      301.218427   92952.124303       0.620568  -28963.457574  -29896.349611     264.315606     288.887136      99.122270  -18503.928178  -11925.175517    -119.570927  -29223.698445    -191.973063
    154000      290.057006   92952.124303       0.620568  -29001.207056  -29899.531484     265.811794     272.466380      98.869069  -18531.138985  -11923.960654     -81.579088  -29072.335699     -52.469789
    155000      296.688566   92952.124303       0.620568  -28959.350397  -29878.213176     248.979630     297.294462     109.548763  -18542.116931  -11923.653430     -68.265670  -29036.921499     -57.222226
    156000      309.816549   92952.124303       0.620568  -28917.324406  -29876.845355     243.170123     294.370568     117.171605  -18457.369197  -11926.450599    -147.737856  -29056.043356    -102.329437
    157000      293.705784   92952.124303       0.620568  -28962.896436  -29872.521352     259.871431     297.370795     112.021156  -18567.601919  -11925.398224     -48.784591  -29254.909948    -215.410932
    158000      294.558833   92952.124303       0.620568  -28934.525132  -29846.791996     248.434105     306.663677     121.574707  -18596.586280  -11924.720954      -2.157252  -28496.601765     323.044915
    159000      306.796631   92952.124303       0.620568  -28927.774586  -29877.942665     262.801487     313.524434     101.907734  -18575.866113  -11926.142463     -54.167744  -29052.494089     -92.002402
    160000      296.824913   92952.124303       0.620568  -28926.345817  -29845.630870     249.109311     299.710732     122.725176  -18490.590154  -11925.617881    -100.968053  -29032.635436     -78.407145
    161000      306.598302   92952.124303       0.620568  -28943.478157  -29893.031996     264.381332     284.395397     112.674583  -18585.739932  -11921.121999     -47.621376  -29548.889272    -446.596363
    162000      289.201259   92952.124303       0.620568  -28982.577297  -29878.251424     263.712383     293.003703     114.122532  -18575.144132  -11924.661541     -49.284369  -29302.585207    -236.061686
    163000      297.194582   92952.124303       0.620568  -28947.941036  -29868.370977     252.132367     307.089318     118.419020  -18580.412748  -11924.789936     -40.808998  -29230.389346    -208.354925
    164000      296.071797   92952.124303       0.620568  -28970.347799  -29887.300405     252.666277     301.716853     116.212081  -18562.475147  -11926.597879     -68.822591  -28989.761080     -14.320683
    165000      297.789295   92952.124303       0.620568  -28983.837788  -29906.109592     249.147626     282.398246     107.447923  -18539.570278  -11925.878057     -79.655052  -29104.238611     -88.816621
    166000      288.924986   92952.124303       0.620568  -28972.998751  -29867.817242     257.655787     296.000413     114.168120  -18498.723609  -11925.873522    -111.044432  -29079.914996     -78.869391
    167000      297.145867   92952.124303       0.620568  -28989.679504  -29909.958571     245.788522     284.708408      98.203063  -18544.917744  -11923.165952     -70.574868  -29025.909181     -26.725710
    168000      294.810728   92952.124303       0.620568  -28945.889920  -29858.936917     272.048367     303.476194     104.493643  -18570.154958  -11924.159964     -44.640199  -28935.710663       7.508979
    169000      280.775969   92952.124303       0.620568  -29019.684513  -29889.264996     240.998320     305.378101     112.402160  -18528.195698  -11924.030737     -95.817143  -29453.155238    -319.760315
    170000      309.333493   92952.124303       0.620568  -28899.214498  -29857.239393     257.632025     320.079743     115.771742  -18527.290823  -11925.822036     -97.610044  -29125.855209    -167.187081
    171000      309.436827   92952.124303       0.620568  -28930.590262  -29888.935190     250.239228     301.401242     116.092936  -18636.866110  -11920.208796       0.406311  -28801.631723      95.129431
    172000      298.872858   92952.124303       0.620568  -28984.789396  -29910.417061     250.124630     293.572749     113.108732  -18558.525714  -11922.752749     -85.944708  -28839.638025     107.074470
    173000      301.974741   92952.124303       0.620568  -28963.454961  -29898.689348     248.874793     305.891791      99.779287  -18509.295076  -11924.949931    -118.990212  -29231.993608    -198.094121
    174000      298.021580   92952.124303       0.620568  -28901.385135  -29824.376338     270.623262     309.875101     118.431190  -18527.054249  -11921.743545     -74.508097  -29254.174562    -260.243776
    175000      304.177415   92952.124303       0.620568  -28994.645067  -29936.701272     241.034811     293.452591     101.755283  -18553.202186  -11924.334426     -95.407345  -29288.298484    -216.620648
    176000      301.092062   92952.124303       0.620568  -28902.539128  -29835.039802     253.063076     314.895709     104.365182  -18543.483797  -11920.405532     -43.474440  -28656.002870     181.863519
    177000      299.067032   92952.124303       0.620568  -28957.380204  -29883.609238     233.819647     299.468179     124.735590  -18565.254038  -11922.742725     -53.635891  -29180.493505    -164.585001
    178000      295.405772   92952.124303       0.620568  -28951.227351  -29866.117236     264.903147     286.486297     113.220832  -18568.357840  -11925.582151     -36.787521  -28514.038684     322.502946
    179000      289.864793   92952.124303       0.620568  -28990.663367  -29888.392499     253.749196     304.151290      96.570757  -18502.042454  -11924.869504    -115.951785  -29751.576859    -561.306506
    180000      296.396450   92952.124303       0.620568  -28921.905937  -29839.864015     267.615185     296.149458     111.291539  -18486.507940  -11927.699077    -100.713179  -28922.322045      -0.306952
    181000      286.535440   92952.124303       0.620568  -29004.869588  -29892.287508     241.912288     285.208419     122.114677  -18587.062183  -11924.043344     -30.417366  -28927.749775      56.889322
    182000      287.701814   92952.124303       0.620568  -28924.889721  -29815.919972     294.741463     299.006549     116.925036  -18534.459633  -11923.735395     -68.397992  -29300.442312    -277.035583
    183000      292.608945   92952.124303       0.620568  -28918.564031  -29824.791970     259.872899     302.350397     127.113372  -18521.872954  -11924.250119     -68.005565  -28854.722874      47.093996
    184000      294.398645   92952.124303       0.620568  -28953.334767  -29865.105518     252.494200     297.201193     116.583571  -18577.589364  -11923.513882     -30.281236  -29011.344759     -42.792494
    185000      302.379076   92952.124303       0.620568  -28926.828881  -29863.315517     254.182521     283.862803     114.562138  -18592.335195  -11924.819241       1.231458  -28928.521061      -1.248279
    186000      301.243332   92952.124303       0.620568  -28923.065454  -29856.034624     244.313843     276.929130     129.087752  -18514.559831  -11922.242323     -69.563195  -28772.785874     110.857419
    187000      307.256116   92952.124303       0.620568  -28907.432579  -29859.023710     261.657203     301.493826     107.842267  -18559.398316  -11923.174582     -47.444107  -29288.975505    -281.454500
    188000      300.267330   92952.124303       0.620568  -28953.968896  -29883.915325     236.832980     322.318303     104.963849  -18575.824022  -11926.476944     -45.729491  -29013.400031     -43.840834
    189000      297.039289   92952.124303       0.620568  -28954.793792  -29874.742780     268.303306     275.488226     121.425689  -18515.158022  -11927.830981     -96.970998  -29167.141368    -156.643399
    190000      288.995805   92952.124303       0.620568  -28935.783276  -29830.821098     290.014333     307.467860     116.059066  -18573.230400  -11924.750077     -46.381881  -28669.319144     196.563804
    191000      314.219713   92952.124303       0.620568  -28896.369889  -29869.527709     270.178735     279.440989     125.504685  -18574.150404  -11924.944510     -45.557203  -28395.972482     369.130424
    192000      307.063520   92952.124303       0.620568  -28923.734901  -29874.729549     273.335550     291.318658     115.431120  -18529.641973  -11926.774651     -98.398253  -29414.417071    -361.963741
    193000      302.524094   92952.124303       0.620568  -28913.923783  -29850.859551     256.657199     313.892034     110.270344  -18529.435426  -11923.227112     -79.016591  -29161.011029    -182.269969
    194000      310.295246   92952.124303       0.620568  -28962.259514  -29923.263017     247.610049     295.715259     112.075549  -18623.410793  -11924.661756     -30.591327  -28936.988744      18.641604
    195000      303.691948   92952.124303       0.620568  -28890.867493  -29831.420177     249.541195     309.069155     110.078524  -18560.706862  -11922.915137     -16.487053  -28570.381866     236.414086
    196000      284.358270   92952.124303       0.620568  -29008.463412  -29889.138501     250.174524     293.854463     111.650645  -18512.119571  -11922.445801    -110.252762  -29290.046098    -207.716377
    197000      301.617221   92952.124303       0.620568  -28918.253314  -29852.380439     262.895610     306.500107     111.858208  -18595.914861  -11922.099340     -15.620163  -29375.359043    -337.195256
    198000      294.224090   92952.124303       0.620568  -28967.567078  -29878.797220     255.946198     293.197145     116.143067  -18591.028770  -11923.931894     -29.122968  -29122.952266    -114.623696
    199000      307.517331   92952.124303       0.620568  -28890.314484  -29842.714613     260.214858     316.647243     110.008165  -18525.730833  -11923.637899     -80.216147  -28851.647950      28.523317
    200000      305.027164   92952.124303       0.620568  -28979.303943  -29923.991872     250.016174     290.662374      98.265571  -18521.928620  -11920.827258    -120.180113  -29616.016297    -469.686489
    201000      289.971057   92952.124303       0.620568  -28978.114046  -29876.172285     262.750990     301.031030     115.530894  -18612.546666  -11924.885140     -18.053393  -28920.585616      42.437258
    202000      295.370214   92952.124303       0.620568  -28971.419418  -29886.199178     254.946361     287.910725     133.683160  -18581.794953  -11926.857981     -54.086490  -29178.081880    -152.449636
    203000      304.149851   92952.124303       0.620568  -28955.315084  -29897.285920     244.376029     288.736426     111.060569  -18523.812966  -11923.620841     -94.025138  -29394.351771    -323.866183
    204000      293.084730   92952.124303       0.620568  -28981.820581  -29889.522055     264.502982     274.346043     113.103752  -18526.357463  -11923.667875     -91.449494  -28959.231202      16.663610
    205000      305.115963   92952.124303       0.620568  -28960.748766  -29905.711710     262.885355     313.060104      86.210221  -18562.555818  -11924.987236     -80.324336  -29080.194447     -88.112037
    206000      301.578405   92952.124303       0.620568  -28903.428872  -29837.435783     271.583361     306.532952     106.875514  -18522.477522  -11924.331104     -75.618983  -28868.466970      25.790505
    207000      297.987176   92952.124303       0.620568  -28981.315341  -29904.199993     226.131717     283.042764     114.905228  -18511.538220  -11924.227897     -92.513584  -29160.307509    -132.037964
    208000      302.599530   92952.124303       0.620568  -28919.479658  -29856.649056     269.238660     289.356954     120.923992  -18529.383751  -11925.200934     -81.583977  -28796.596236      90.647971
    209000      298.052397   92952.124303       0.620568  -28949.722849  -29872.809496     250.772752     299.061547      99.833538  -18493.581395  -11924.447882    -104.448056  -29408.882509    -338.710388
    210000      304.693906   92952.124303       0.620568  -28978.417263  -29922.073071     229.575034     291.021061     106.891265  -18524.691770  -11923.986028    -100.882634  -29290.753532    -230.402512
Loop time of 167.43 on 128 procs for 100000 steps with 1040 atoms

Performance: 51.604 ns/day, 0.465 hours/ns, 597.264 timesteps/s
99.6% CPU use with 128 MPI tasks x 1 OpenMP threads

MPI task timing breakdown:
Section |  min time  |  avg time  |  max time  |%varavg| %total
---------------------------------------------------------------
Pair    | 0.020798   | 21.058     | 122.29     | 867.1 | 12.58
Bond    | 0.0088703  | 0.55047    | 2.9288     | 128.5 |  0.33
Kspace  | 24.639     | 130.66     | 153.99     | 370.3 | 78.04
Neigh   | 3.4466     | 3.7029     | 3.8667     |   7.9 |  2.21
Comm    | 0.045744   | 1.8824     | 5.9472     | 152.9 |  1.12
Output  | 0.079435   | 0.079706   | 0.10645    |   0.8 |  0.05
Modify  | 8.823      | 8.9083     | 8.995      |   1.4 |  5.32
Other   |            | 0.5916     |            |       |  0.35

Nlocal:          8.125 ave          43 max           0 min
Histogram: 96 0 0 0 1 6 8 1 7 9
Nghost:        905.258 ave        3133 max           0 min
Histogram: 64 16 0 0 16 0 0 16 0 16
Neighs:              0 ave           0 max           0 min
Histogram: 128 0 0 0 0 0 0 0 0 0

Total # of neighbors = 0
Ave neighs/atom = 0
Ave special neighs/atom = 6.8923077
Neighbor list builds = 2463
Dangerous builds = 0
System init for write_restart ...
PPPM initialization ...
  using 12-bit tables for long-range coulomb (src/src/kspace.cpp:342)
  G vector (1/distance) = 0.16057325
  grid = 8 30 8
  stencil order = 5
  estimated absolute RMS force accuracy = 0.029640343
  estimated relative force accuracy = 8.9261013e-05
  using double precision FFTW3
  3d grid and FFT values/proc = 504 16
Generated 0 of 78 mixed pair_coeff terms from arithmetic mixing rule
System init for write_data ...
PPPM initialization ...
  using 12-bit tables for long-range coulomb (src/src/kspace.cpp:342)
  G vector (1/distance) = 0.16057325
  grid = 8 30 8
  stencil order = 5
  estimated absolute RMS force accuracy = 0.029640343
  estimated relative force accuracy = 8.9261013e-05
  using double precision FFTW3
  3d grid and FFT values/proc = 504 16
Generated 0 of 78 mixed pair_coeff terms from arithmetic mixing rule
Total wall time: 0:05:56
