8
Coordinates from ORCA-job orca Relaxed Surface Scan Step 31 E -576.381858004242
  C       0.242483      0.164853     -0.702248
  Cl      3.134820     -0.182126      3.059351
  H       1.300904      0.211378     -0.904361
  H      -0.311277      1.066891     -0.496702
  H      -0.276767     -0.779595     -0.735407
  O       3.776272      0.360310     -0.462537
  H       3.774474      0.231687      0.492256
  H       4.608181     -0.017419     -0.762671
