8
Coordinates from ORCA-job orca Relaxed Surface Scan Step 28 E -576.382535200551
  C       0.285187      0.159004     -0.644968
  Cl      2.906050     -0.179765      2.937758
  H       1.330595      0.205934     -0.907565
  H      -0.258577      1.061864     -0.417332
  H      -0.233030     -0.786622     -0.641416
  O       3.800367      0.366474     -0.501664
  H       3.782110      0.239640      0.453176
  H       4.636388     -0.010548     -0.790309
