8
Coordinates from ORCA-job orca Relaxed Surface Scan Step 37 E -576.381419931668
  C       0.154156      0.177492     -0.826110
  Cl      3.632505     -0.157266      3.250367
  H       1.231522      0.231291     -0.821132
  H      -0.435220      1.064960     -0.660137
  H      -0.343237     -0.761744     -1.008053
  O       3.708000      0.343018     -0.333321
  H       3.817276      0.221520      0.615764
  H       4.484087     -0.063290     -0.729698
