8
Coordinates from ORCA-job orca Relaxed Surface Scan Step 25 E -576.384055197134
  C       0.339926      0.153698     -0.589653
  Cl      2.702551     -0.173827      2.801706
  H       1.370316      0.201462     -0.906942
  H      -0.193863      1.056958     -0.340565
  H      -0.175714     -0.792822     -0.555533
  O       3.799758      0.371030     -0.534678
  H       3.764856      0.245450      0.420413
  H       4.641261     -0.005969     -0.807068
