8
Coordinates from ORCA-job orca Relaxed Surface Scan Step 9 E -576.458232582994
  C       0.664577      0.122011     -0.248992
  Cl      1.861338     -0.111363      1.951112
  H       1.560842      0.190797     -0.851100
  H       0.129764      1.024227      0.004702
  H       0.136373     -0.817227     -0.192970
  O       3.754920      0.410286     -0.655083
  H       3.540226      0.259387      0.278142
  H       4.601050     -0.022138     -0.798131
