8
Coordinates from ORCA-job orca Relaxed Surface Scan Step 43 E -576.381275375276
  C       0.088677      0.189692     -0.959255
  Cl      4.212610     -0.166102      3.357709
  H       1.163474      0.234563     -0.879652
  H      -0.503078      1.082623     -0.836871
  H      -0.403000     -0.746718     -1.169038
  O       3.606861      0.330039     -0.203316
  H       3.689190      0.213589      0.749160
  H       4.394356     -0.081707     -0.571057
