8
Coordinates from ORCA-job orca Relaxed Surface Scan Step 47 E -576.381183482950
  C       0.049443      0.197958     -1.059522
  Cl      4.643694     -0.170593      3.364218
  H       1.118173      0.233860     -0.917619
  H      -0.540183      1.096854     -0.977028
  H      -0.438604     -0.735976     -1.287975
  O       3.511124      0.314498     -0.072180
  H       3.609210      0.218293      0.880891
  H       4.296234     -0.098915     -0.443106
