8
Coordinates from ORCA-job orca Relaxed Surface Scan Step 20 E -576.391202555187
  C       0.466966      0.144744     -0.502274
  Cl      2.424716     -0.167016      2.546403
  H       1.435689      0.187453     -0.978181
  H      -0.028607      1.053700     -0.199001
  H      -0.042142     -0.799354     -0.387034
  O       3.754312      0.387573     -0.580786
  H       3.626978      0.249692      0.366912
  H       4.611178     -0.000813     -0.778359
