8
Coordinates from ORCA-job orca Relaxed Surface Scan Step 50 E -576.381076095463
  C      -0.001630      0.204611     -1.130812
  Cl      4.920204     -0.165070      3.391533
  H       1.061324      0.234563     -0.949359
  H      -0.589684      1.105654     -1.062569
  H      -0.484992     -0.726015     -1.381338
  O       3.483436      0.300030      0.014448
  H       3.591089      0.209684      0.966873
  H       4.269343     -0.107476     -0.361096
