8
Coordinates from ORCA-job orca Relaxed Surface Scan Step 48 E -576.381152553846
  C       0.031144      0.200020     -1.082831
  Cl      4.732566     -0.169924      3.376415
  H       1.098197      0.233942     -0.928350
  H      -0.557807      1.099796     -1.005607
  H      -0.455670     -0.732985     -1.317500
  O       3.504691      0.310216     -0.045214
  H       3.605649      0.216321      0.907735
  H       4.290319     -0.101406     -0.416968
