8
Coordinates from ORCA-job orca Relaxed Surface Scan Step 38 E -576.381386510810
  C       0.143266      0.179437     -0.847192
  Cl      3.721543     -0.157430      3.277851
  H       1.220601      0.232143     -0.831638
  H      -0.446874      1.067191     -0.685533
  H      -0.353233     -0.759047     -1.035363
  O       3.692825      0.340819     -0.314299
  H       3.801861      0.217907      0.634633
  H       4.469102     -0.065040     -0.710780
