8
Coordinates from ORCA-job orca Relaxed Surface Scan Step 21 E -576.389091024593
  C       0.440601      0.146276     -0.519852
  Cl      2.475832     -0.170766      2.599990
  H       1.417230      0.188532     -0.978897
  H      -0.058127      1.055134     -0.221898
  H      -0.069922     -0.797806     -0.411906
  O       3.768511      0.385952     -0.574717
  H       3.650191      0.249142      0.373715
  H       4.624774     -0.000485     -0.778757
