8
Coordinates from ORCA-job orca Relaxed Surface Scan Step 27 E -576.382912527528
  C       0.302155      0.157129     -0.626131
  Cl      2.835198     -0.178533      2.894312
  H       1.342171      0.204114     -0.909667
  H      -0.237861      1.060349     -0.390998
  H      -0.215504     -0.788715     -0.610822
  O       3.803206      0.368366     -0.513913
  H       3.778222      0.241839      0.440958
  H       4.641503     -0.008569     -0.796060
