8
Coordinates from ORCA-job orca Relaxed Surface Scan Step 26 E -576.383408770334
  C       0.320595      0.155360     -0.607656
  Cl      2.767307     -0.176474      2.849169
  H       1.355522      0.202684     -0.909467
  H      -0.216150      1.058644     -0.365246
  H      -0.196216     -0.790765     -0.582372
  O       3.802830      0.369849     -0.524957
  H       3.772296      0.243770      0.429990
  H       4.642906     -0.007088     -0.801782
