8
Coordinates from ORCA-job orca Relaxed Surface Scan Step 45 E -576.381226667605
  C       0.060397      0.193385     -1.005814
  Cl      4.403001     -0.171275      3.382612
  H       1.133181      0.234252     -0.900581
  H      -0.530430      1.089123     -0.900870
  H      -0.430226     -0.742203     -1.221534
  O       3.580303      0.323911     -0.150907
  H       3.665027      0.217159      0.802300
  H       4.367838     -0.088373     -0.517526
