8
Coordinates from ORCA-job orca Relaxed Surface Scan Step 2 E -576.505804899345
  C       0.724580      0.082698      0.089830
  Cl      1.490544     -0.069232      1.475906
  H       1.415739      0.175241     -0.748531
  H       0.083260      0.964981      0.071279
  H       0.083359     -0.774850     -0.119221
  O       3.959451      0.428836     -0.699761
  H       3.689466      0.271272      0.212668
  H       4.802691     -0.022965     -0.794490
