8
Coordinates from ORCA-job orca Relaxed Surface Scan Step 46 E -576.381199684923
  C       0.047022      0.195346     -1.029683
  Cl      4.501508     -0.172713      3.391025
  H       1.118458      0.234194     -0.910787
  H      -0.543249      1.092371     -0.933043
  H      -0.442741     -0.739675     -1.249716
  O       3.564458      0.320359     -0.122403
  H       3.651570      0.218105      0.831033
  H       4.352065     -0.092006     -0.488746
