8
Coordinates from ORCA-job orca Relaxed Surface Scan Step 33 E -576.381625225961
  C       0.215038      0.169007     -0.741980
  Cl      3.296185     -0.180972      3.131121
  H       1.281551      0.215443     -0.896871
  H      -0.345861      1.069900     -0.551371
  H      -0.303251     -0.774524     -0.803816
  O       3.755530      0.354783     -0.430390
  H       3.767251      0.225463      0.524127
  H       4.582646     -0.023120     -0.743141
