8
Coordinates from ORCA-job orca Relaxed Surface Scan Step 13 E -576.419438120817
  C       0.644540      0.134201     -0.368723
  Cl      2.085262     -0.129932      2.160888
  H       1.579939      0.191523     -0.916422
  H       0.140984      1.038226     -0.058239
  H       0.138497     -0.812857     -0.250137
  O       3.662137      0.398719     -0.617308
  H       3.486221      0.251859      0.328165
  H       4.511509     -0.015760     -0.790545
