8
Coordinates from ORCA-job orca Relaxed Surface Scan Step 11 E -576.437616192536
  C       0.655540      0.128619     -0.311166
  Cl      1.966178     -0.120658      2.058287
  H       1.575279      0.192087     -0.880299
  H       0.136863      1.031179     -0.024818
  H       0.140969     -0.816085     -0.220190
  O       3.707444      0.404813     -0.638201
  H       3.512127      0.255702      0.301159
  H       4.554689     -0.019677     -0.797091
