8
Coordinates from ORCA-job orca Relaxed Surface Scan Step 3 E -576.467801396158
  C       0.737620      0.077666      0.127612
  Cl      1.471930     -0.062709      1.407014
  H       1.384492      0.170618     -0.752074
  H       0.082538      0.955895      0.077801
  H       0.076490     -0.765564     -0.106929
  O       3.971987      0.429630     -0.693016
  H       3.709237      0.272039      0.221420
  H       4.814797     -0.021594     -0.794147
