8
Coordinates from ORCA-job orca Relaxed Surface Scan Step 51 E -576.381055112004
  C       0.006073      0.209290     -1.167745
  Cl      5.095282     -0.147028      3.322321
  H       1.062296      0.235642     -0.950878
  H      -0.583331      1.110028     -1.107021
  H      -0.469758     -0.717204     -1.446544
  O       3.410797      0.285842      0.090925
  H       3.535212      0.199783      1.041679
  H       4.192519     -0.120372     -0.295056
