8
Coordinates from ORCA-job orca Relaxed Surface Scan Step 4 E -576.393642274159
  C       0.752197      0.072443      0.166534
  Cl      1.447238     -0.056526      1.343252
  H       1.356197      0.165713     -0.752416
  H       0.081222      0.946633      0.081551
  H       0.069523     -0.755978     -0.097241
  O       3.984105      0.430789     -0.686710
  H       3.732976      0.273371      0.230795
  H       4.825632     -0.020464     -0.798085
