8
Coordinates from ORCA-job orca Relaxed Surface Scan Step 14 E -576.411285630241
  C       0.640535      0.137088     -0.394604
  Cl      2.150760     -0.133160      2.212465
  H       1.585441      0.193065     -0.927558
  H       0.139622      1.041031     -0.078615
  H       0.137298     -0.811174     -0.270971
  O       3.638222      0.395503     -0.607047
  H       3.469362      0.248993      0.340939
  H       4.487849     -0.015366     -0.786929
