8
Coordinates from ORCA-job orca Relaxed Surface Scan Step 35 E -576.381512359936
  C       0.177384      0.173916     -0.784642
  Cl      3.455168     -0.155873      3.193871
  H       1.254571      0.229926     -0.799971
  H      -0.410721      1.059983     -0.607019
  H      -0.321234     -0.766982     -0.954250
  O       3.736224      0.346837     -0.371313
  H       3.845491      0.228324      0.578150
  H       4.512206     -0.060151     -0.767146
