8
Coordinates from ORCA-job orca Relaxed Surface Scan Step 49 E -576.381116487902
  C       0.014285      0.202229     -1.106592
  Cl      4.824932     -0.168139      3.385515
  H       1.079426      0.234170     -0.938929
  H      -0.574125      1.102732     -1.034146
  H      -0.470998     -0.729686     -1.348550
  O       3.495194      0.305411     -0.016339
  H       3.599317      0.213523      0.936398
  H       4.281059     -0.104260     -0.389676
