8
Coordinates from ORCA-job orca Relaxed Surface Scan Step 17 E -576.400283353184
  C       0.539293      0.140040     -0.446694
  Cl      2.271724     -0.153935      2.382844
  H       1.486381      0.187243     -0.965797
  H       0.047967      1.047528     -0.130973
  H       0.034280     -0.805010     -0.318617
  O       3.725559      0.395079     -0.600606
  H       3.562914      0.251919      0.342723
  H       4.580973     -0.006884     -0.775200
