8
Coordinates from ORCA-job orca Relaxed Surface Scan Step 6 E -576.492326220190
  C       0.678986      0.110623     -0.144370
  Cl      1.726918     -0.097816      1.789743
  H       1.522557      0.188671     -0.815225
  H       0.112726      1.010682      0.040243
  H       0.120892     -0.813017     -0.159985
  O       3.830512      0.417554     -0.677421
  H       3.580475      0.264497      0.244623
  H       4.676023     -0.025215     -0.789929
