8
Coordinates from ORCA-job orca Relaxed Surface Scan Step 42 E -576.381294777763
  C       0.100288      0.187154     -0.936838
  Cl      4.113687     -0.170463      3.344000
  H       1.175889      0.233223     -0.870847
  H      -0.490721      1.080283     -0.812274
  H      -0.393313     -0.750643     -1.135686
  O       3.623205      0.333713     -0.226500
  H       3.713028      0.222243      0.725837
  H       4.407028     -0.079529     -0.600012
