8
Coordinates from ORCA-job orca Relaxed Surface Scan Step 15 E -576.403716969342
  C       0.633797      0.139858     -0.420299
  Cl      2.216384     -0.136643      2.262352
  H       1.588480      0.194198     -0.937448
  H       0.135154      1.043913     -0.099733
  H       0.132982     -0.809417     -0.291433
  O       3.617832      0.392762     -0.596533
  H       3.456831      0.246280      0.353597
  H       4.467631     -0.014971     -0.782824
