
                                 *****************
                                 * O   R   C   A *
                                 *****************

                                            #,                                       
                                            ###                                      
                                            ####                                     
                                            #####                                    
                                            ######                                   
                                           ########,                                 
                                     ,,################,,,,,                         
                               ,,#################################,,                 
                          ,,##########################################,,             
                       ,#########################################, ''#####,          
                    ,#############################################,,   '####,        
                  ,##################################################,,,,####,       
                ,###########''''           ''''###############################       
              ,#####''   ,,,,##########,,,,          '''####'''          '####       
            ,##' ,,,,###########################,,,                        '##       
           ' ,,###''''                  '''############,,,                           
         ,,##''                                '''############,,,,        ,,,,,,###''
      ,#''                                            '''#######################'''  
     '                                                          ''''####''''         
             ,#######,   #######,   ,#######,      ##                                
            ,#'     '#,  ##    ##  ,#'     '#,    #''#        ,####,   ,####,        
            ##       ##  ##   ,#'  ##            #'  '#       #'       #'  '#        
            ##       ##  #######   ##           ,######,      #####,   #    #        
            '#,     ,#'  ##    ##  '#,     ,#' ,#      #,     #,   #   #,  ,#        
             '#######'   ##     ##  '#######'  #'      '#     '####' # '####'        



                #########################################################
                #                        -***-                          #
                #          Department of theory and spectroscopy        #
                #                                                       #
                #                      Frank Neese                      #
                #                                                       #
                #     Directorship, Architecture, Infrastructure        #
                #                    SHARK, DRIVERS                     #
                #        Core code/Algorithms in most modules           #
                #                                                       #
                #        Max Planck Institute fuer Kohlenforschung      #
                #                Kaiser Wilhelm Platz 1                 #
                #                 D-45470 Muelheim/Ruhr                 #
                #                      Germany                          #
                #                                                       #
                #                  All rights reserved                  #
                #                        -***-                          #
                #########################################################


                         Program Version 6.0.1  -  RELEASE   -


 With contributions from (in alphabetic order):
[Max-Planck-Institut fuer Kohlenforschung]                               
  Daniel Aravena         : Magnetic Suceptibility                        
  Michael Atanasov       : Ab Initio Ligand Field Theory (pilot matlab implementation)
  Alexander A. Auer      : GIAO ZORA, VPT2 properties, NMR spectrum      
  Ute Becker             : All parallelization in ORCA, NUMFREQ, NUMCALC 
  Giovanni Bistoni       : ED, misc. LED, open-shell LED, HFLD           
  Martin Brehm           : Molecular dynamics                            
  Dmytro Bykov           : pre 5.0 version of the SCF Hessian            
  Marcos Casanova-Páez   : Triplet and SCS-CIS(D). UHF-(DLPNO)-IP/EA/STEOM-CCSD. UHF-CVS-IP/STEOM-CCSD   
  Vijay G. Chilkuri      : MRCI spin determinant printing, contributions to CSF-ICE 
  Pauline Colinet        : FMM embedding                                 
  Dipayan Datta          : RHF DLPNO-CCSD density                        
  Achintya Kumar Dutta   : EOM-CC, STEOM-CC                              
  Nicolas Foglia         : Exact transition moments, OPA infrastructure, MCD improvements    
  Dmitry Ganyushin       : Spin-Orbit,Spin-Spin,Magnetic field MRCI      
  Miquel Garcia-Rates    : C-PCM and meta-GGA Hessian, CCSD/C-PCM, Gaussian charge scheme 
  Tiago L. C. Gouveia    : GS-ROHF, GS-ROCIS                             
  Yang Guo               : DLPNO-NEVPT2, F12-NEVPT2, CIM, IAO-localization        
  Andreas Hansen         : Spin unrestricted coupled pair/coupled cluster methods 
  Ingolf Harden          : AUTO-CI MPn and infrastructure                
  Benjamin Helmich-Paris : MC-RPA, TRAH-(SCF,CASSCF), AVAS, COSX integrals, SCF dyn. polar. 
  Lee Huntington         : MR-EOM, pCC                                   
  Robert Izsak           : Overlap fitted RIJCOSX, COSX-SCS-MP3, EOM     
  Riya Kayal             : Wick's Theorem for AUTO-CI, AUTO-CI UHF-CCSDT 
  Emily Kempfer          : AUTO-CI, RHF CISDT and CCSDT                  
  Christian Kollmar      : KDIIS, OOCD, Brueckner-CCSD(T), CCSD density, CASPT2, CASPT2-K, improved NEVPT2 
  Axel Koslowski         : Symmetry handling                             
  Simone Kossmann        : meta-GGA functionals, TD-DFT gradient, OOMP2, (MP2 Hessian; deprecated post 5.0) 
  Lucas Lang             : DCDCAS                                        
  Marvin Lechner         : AUTO-CI (C++ implementation), FIC-MRCC        
  Spencer Leger          : CASSCF response                               
  Dagmar Lenk            : GEPOL surface, SMD, ORCA-2-JSON               
  Dimitrios Liakos       : Extrapolation schemes; Compound Job, initial MDCI parallelization 
  Dimitrios Manganas     : Further ROCIS development; embedding schemes. LFT, Crystal Embedding 
  Dimitrios Pantazis     : SARC Basis sets                               
  Anastasios Papadopoulos: AUTO-CI, single reference methods and gradients 
  Taras Petrenko         : pre 6.0 DFT Hessian and TD-DFT gradient, (ASA, deprecated), ECA, 1-Electron XAS/XES, NRVS 
  Peter Pinski           : DLPNO-MP2, DLPNO-MP2 Gradient                 
  Christoph Reimann      : Effective Core Potentials                     
  Marius Retegan         : Local ZFS, SOC                                
  Christoph Riplinger    : Optimizer, TS searches, QM/MM, DLPNO-CCSD(T), (RO)-DLPNO pert. Triples 
  Michael Roemelt        : Original ROCIS implementation                 
  Masaaki Saitow         : Open-shell DLPNO-CCSD energy and density      
  Barbara Sandhoefer     : DKH picture change effects                    
  Kantharuban Sivalingam : CASSCF convergence/infrastructure, NEVPT2 and variants, FIC-MRCI 
  Bernardo de Souza      : ESD, SOC TD-DFT                               
  Georgi L. Stoychev     : AutoAux, RI-MP2 NMR, DLPNO-MP2 response, X2C  
  Van Anh Tran           : RI-MP2 g-tensors                              
  Willem Van den Heuvel  : Paramagnetic NMR                              
  Zikuan Wang            : NOTCH, Electric field optimization            
  Frank Wennmohs         : Technical directorship and infrastructure     
  Hang Xu                : AUTO-CI-Response properties                   
                                                                         
[FACCTs GmbH]                                                            
  Markus Bursch, Miquel Garcia-Rates, Christoph Riplinger, Bernardo de Souza, Georgi L. Stoychev 
                                                                 
  APM, Basis sets (HGBS, AHGBS, def-TZVP (Ac-Lr), def2-XVPD (La-Lu)), CI-OPT, improved COSX, DLPNO-Multilevel,           
  DOCKER, DRACO, updates on ESD, GOAT, IRC, LR-CPCM, MBIS, meta-GGA TD-DFT gradient, ML-optimized integration grids, 
  MM, NACMEs, nearIR, NEB, NEB-TS, NL-DFT gradient (VV10), 2- and 3-layer-ONIOM, interface openCOSMO-RS, QMMM,   
  Crystal-QMMM, SF, symmetry and pop. for TD-DFT, r2SCAN hybrids, SOLVATOR                                   
                                                                         
[Other institutions]                                                     
  V. Asgeirsson          : NEB                                           
  Christoph Bannwarth    : sTDA-DFT, sTD-DFT, PBEh-3c, B97-3c, D3        
  Sebastian Ehlert       : rSCAN, r2SCAN, r2SCAN-3c, D4, dhf basis sets  
  Marvin Friede          : D4 for Fr, Ra, Ac-Lr                          
  Lars Goerigk           : TD-DFT with DH, B97 family of functionals     
  Stefan Grimme          : VdW corrections, initial TS optimization, DFT functionals, gCP, sTDA/sTD-DF 
  Waldemar Hujo          : DFT-NL                                        
  H. Jonsson             : NEB                                           
  Holger Kruse           : gCP                                           
  Marcel Mueller         : wB97X-3c, vDZP basis set                      
  Hagen Neugebauer       : wr2SCAN                                       
  Tobias Risthaus        : range-separated hybrid DFT                    
  Lukas Wittmann         : regularized MP2, r2SCAN double-hybrids, wr2SCAN        
                                                                         
We gratefully acknowledge several colleagues who have allowed us to      
interface, adapt or use parts of their codes:                            
  Ed Valeev, F. Pavosevic, A. Kumar             : LibInt (2-el integral package), F12 methods 
  Garnet Chan, S. Sharma, J. Yang, R. Olivares  : DMRG                   
  Ulf Ekstrom                                   : XCFun DFT Library      
  Mihaly Kallay                                 : mrcc  (arbitrary order and MRCC methods)
  Frank Weinhold                                : gennbo (NPA and NBO analysis)           
  Simon Mueller                                 : openCOSMO-RS                            
  Christopher J. Cramer and Donald G. Truhlar   : smd solvation model                     
  S Lehtola, MJT Oliveira, MAL Marques          : LibXC Library                           
  Liviu Ungur et al                             : ANISO software                          


 Your calculation uses the libint2 library for the computation of 2-el integrals
 For citations please refer to: http://libint.valeyev.net

 Your ORCA version has been built with support for libXC version: 6.2.2
 For citations please refer to: https://libxc.gitlab.io

 This ORCA versions uses:
   CBLAS   interface :  Fast vector & matrix operations
   LAPACKE interface :  Fast linear algebra routines
   SCALAPACK package :  Parallel linear algebra routines
   Shared memory     :  Shared parallel matrices
   BLAS/LAPACK       :  OpenBLAS 0.3.27  USE64BITINT DYNAMIC_ARCH NO_AFFINITY Zen SINGLE_THREADED
        Core in use  :  Zen
   Copyright (c) 2011-2014, The OpenBLAS Project




***************************************
The coordinates will be read from file: /temp180/bsavoie2/emille35/mlip_alchemy/sn1_scans/ch3cl/uwb97mv-tzvpd/orca.allxyz
***************************************


****
**** There are 64 structures found in the file
****
Your calculation utilizes the DFT-NL dispersion correction.
Cite in your paper:
Vydrov, O. A.; Van Voorhis, T. J. Chem. Phys. 2010, 133, 244103
Hujo, W.; Grimme, S. J. Chem. Theory Comput. 2011, 7, 3866 
   

Warning: RI is on but no J-basis has been assigned. Assigning Def2/J (nothing to worry about!)
================================================================================

----- Orbital basis set information -----
Your calculation utilizes the basis: def2-TZVPD
   F. Weigend and R. Ahlrichs, Phys. Chem. Chem. Phys. 7, 3297 (2005).
   D. Rappoport and F. Furche, J. Chem. Phys. 133, 134105 (2010)
   D. Rappoport, J. Chem. Phys. 155, 124102 (2021).

----- AuxJ basis set information -----
Your calculation utilizes the auxiliary basis: def2/J
   F. Weigend, Phys. Chem. Chem. Phys. 8, 1057 (2006).

================================================================================
                                        WARNINGS
                       Please study these warnings very carefully!
================================================================================


WARNING: B97M-V or wB97M-V functional requested.
  ===> : libXC variant has now been activated.
         Any manually given DFX/HFX/RangeSep scaling parameters are IGNORED!


================================================================================
                                       INPUT FILE
================================================================================
NAME = orca.inp
|  1> ! RKS wB97M-V def2-TZVPD PAL2
|  2> 
|  3> * xyzfile 0 1 /temp180/bsavoie2/emille35/mlip_alchemy/sn1_scans/ch3cl/uwb97mv-tzvpd/orca.allxyz
|  4> 
|  5>                          ****END OF INPUT****
================================================================================

                      *********************************
                      * Multiple XYZ Scan Calculation *
                      *********************************

Multiple XYZ scan settings:
    -> SCF surface will be mapped

There are 64 structures to be calculated

         *************************************************************
                               MULTIPLE XYZ STEP   1
         *************************************************************
---------------------------------
CARTESIAN COORDINATES (ANGSTROEM)
---------------------------------
  C     -0.011361    0.000097   -0.000042
  Cl     6.988639   -0.000284   -0.000127
  H     -0.005870    0.127880   -1.069946
  H     -0.016667    0.862758    0.645612
  H     -0.009881   -0.990371    0.424263

----------------------------
CARTESIAN COORDINATES (A.U.)
----------------------------
  NO LB      ZA    FRAG     MASS         X           Y           Z
   0 C     6.0000    0    12.011   -0.021469    0.000183   -0.000079
   1 Cl   17.0000    0    35.453   13.206614   -0.000537   -0.000240
   2 H     1.0000    0     1.008   -0.011093    0.241658   -2.021905
   3 H     1.0000    0     1.008   -0.031496    1.630376    1.220030
   4 H     1.0000    0     1.008   -0.018672   -1.871530    0.801741

--------------------------------
INTERNAL COORDINATES (ANGSTROEM)
--------------------------------
 C      0   0   0     0.000000000000     0.00000000     0.00000000
 Cl     1   0   0     7.000000010885     0.00000000     0.00000000
 H      1   2   0     1.077521793462    89.70770116     0.00000000
 H      1   2   3     1.077534798637    90.28505076   239.99799543
 H      1   2   3     1.077526696861    89.91871071   120.00055589

---------------------------
INTERNAL COORDINATES (A.U.)
---------------------------
 C      0   0   0     0.000000000000     0.00000000     0.00000000
 Cl     1   0   0    13.228082958018     0.00000000     0.00000000
 H      1   2   0     2.036221092975    89.70770116     0.00000000
 H      1   2   3     2.036245669193    90.28505076   239.99799543
 H      1   2   3     2.036230359057    89.91871071   120.00055589

---------------------
BASIS SET INFORMATION
---------------------
There are 3 groups of distinct atoms

 Group   1 Type C   : 12s6p3d1f contracted to 6s3p3d1f pattern {621111/411/111/1}
 Group   2 Type Cl  : 15s10p4d1f contracted to 6s6p3d1f pattern {732111/511111/211/1}
 Group   3 Type H   : 5s2p contracted to 3s2p pattern {311/11}

Atom   0C    basis set group =>   1
Atom   1Cl   basis set group =>   2
Atom   2H    basis set group =>   3
Atom   3H    basis set group =>   3
Atom   4H    basis set group =>   3
---------------------------------
AUXILIARY/J BASIS SET INFORMATION
---------------------------------
There are 3 groups of distinct atoms

 Group   1 Type C   : 12s5p4d2f1g contracted to 6s4p3d1f1g pattern {711111/2111/211/2/1}
 Group   2 Type Cl  : 14s5p5d2f1g contracted to 8s4p3d1f1g pattern {71111111/2111/311/2/1}
 Group   3 Type H   : 5s2p1d contracted to 3s1p1d pattern {311/2/1}

Atom   0C    basis set group =>   1
Atom   1Cl   basis set group =>   2
Atom   2H    basis set group =>   3
Atom   3H    basis set group =>   3
Atom   4H    basis set group =>   3


           ************************************************************
           *        Program running with 2 parallel MPI-processes     *
           *              working on a common directory               *
           ************************************************************
------------------------------------------------------------------------------
                             ORCA STARTUP CALCULATIONS
                           -- RI-GTO INTEGRALS CHOSEN --
------------------------------------------------------------------------------
------------------------------------------------------------------------------
                   ___                                                        
                  /   \      - P O W E R E D   B Y -                         
                 /     \                                                     
                 |  |  |   _    _      __       _____    __    __             
                 |  |  |  | |  | |    /  \     |  _  \  |  |  /  |          
                  \  \/   | |  | |   /    \    | | | |  |  | /  /          
                 / \  \   | |__| |  /  /\  \   | |_| |  |  |/  /          
                |  |  |   |  __  | /  /__\  \  |    /   |      \           
                |  |  |   | |  | | |   __   |  |    \   |  |\   \          
                \     /   | |  | | |  |  |  |  | |\  \  |  | \   \       
                 \___/    |_|  |_| |__|  |__|  |_| \__\ |__|  \__/        
                                                                              
                      - O R C A' S   B I G   F R I E N D -                    
                                      &                                       
                       - I N T E G R A L  F E E D E R -                       
                                                                              
 v1 FN, 2020, v2 2021, v3 2022-2024                                           
------------------------------------------------------------------------------


----------------------
SHARK INTEGRAL PACKAGE
----------------------

Number of atoms                             ...      5
Number of basis functions                   ...    110
Number of shells                            ...     44
Maximum angular momentum                    ...      3
Integral batch strategy                     ... SHARK/LIBINT Hybrid
RI-J (if used) integral strategy            ... SPLIT-RIJ (Revised 2003 algorithm where possible)
Printlevel                                  ...      1
Contraction scheme used                     ... SEGMENTED contraction
Prescreening option                         ... SCHWARTZ
   Thresh                                   ... 1.000e-10
   Tcut                                     ... 1.000e-11
   Tpresel                                  ... 1.000e-11 
Coulomb Range Separation                    ... NOT USED
Exchange Range Separation                   ... Long Range
   Mu parameter                             ... 3.000e-01
   Scaling (regular/separated)              ... 1.500e-01 8.500e-01
Multipole approximations                    ... NOT USED
Finite Nucleus Model                        ... NOT USED
CABS basis                                  ... NOT available
Auxiliary Coulomb fitting basis             ... AVAILABLE
   # of basis functions in Aux-J            ...    133
   # of shells in Aux-J                     ...     47
   Maximum angular momentum in Aux-J        ...      4
Auxiliary J/K fitting basis                 ... NOT available
Auxiliary Correlation fitting basis         ... NOT available
Auxiliary 'external' fitting basis          ... NOT available

Checking pre-screening integrals            ... done (  0.0 sec) Dimension = 44
Check shell pair data                       ... done (  0.0 sec)
Shell pair information
Shell pair cut-off parameter TPreSel        ...   1.0e-11
Total number of shell pairs                 ...       990
Shell pairs after pre-screening             ...       791
Total number of primitive shell pairs       ...      2768
Primitive shell pairs kept                  ...      1889
          la=0 lb=0:    186 shell pairs
          la=1 lb=0:    255 shell pairs
          la=1 lb=1:    101 shell pairs
          la=2 lb=0:     98 shell pairs
          la=2 lb=1:     74 shell pairs
          la=2 lb=2:     18 shell pairs
          la=3 lb=0:     28 shell pairs
          la=3 lb=1:     21 shell pairs
          la=3 lb=2:      8 shell pairs
          la=3 lb=3:      2 shell pairs

Calculating one electron integrals          ... done (  0.0 sec)
Calculating RI/J V-Matrix + Cholesky decomp.... done (  0.1 sec)
Calculating Nuclear repulsion               ... done (  0.0 sec) ENN=     21.212188722744 Eh

Diagonalization of the overlap matrix:
Smallest eigenvalue                        ... 6.598e-05
Time for diagonalization                   ...    0.001 sec
Threshold for overlap eigenvalues          ... 1.000e-07
Number of eigenvalues below threshold      ... 0
Time for construction of square roots      ...    0.007 sec
Total time needed                          ...    0.039 sec

-------------------
DFT GRID GENERATION
-------------------

General Integration Accuracy     IntAcc      ... 4.388
Radial Grid Type                 RadialGrid  ... OptM3 with GC (2021)
Angular Grid (max. ang.)         AngularGrid ... 4 (Lebedev-302)
Angular grid pruning method      GridPruning ... 4 (adaptive)
Weight generation scheme         WeightScheme... mBecke (2022)
Basis function cutoff            BFCut       ... 1.0000e-10
Integration weight cutoff        WCut        ... 1.0000e-14
Partially contracted basis set               ... off
Rotationally invariant grid construction     ... off
Angular grids for H and He will be reduced by one unit
Diffuse basis detected: some atoms will have their outermost
                        angular grid increased by 1.

Total number of grid points                  ...    24728
Total number of batches                      ...      388
Average number of points per batch           ...       63
Average number of grid points per atom       ...     4946

--------------------
COSX GRID GENERATION
--------------------

GRIDX 1
-------
General Integration Accuracy     IntAcc      ... 3.816
Radial Grid Type                 RadialGrid  ... OptM3 with GC (2021)
Angular Grid (max. ang.)         AngularGrid ... 1 (Lebedev-50)
Angular grid pruning method      GridPruning ... 4 (adaptive)
Weight generation scheme         WeightScheme... mBecke (2022)
Basis function cutoff            BFCut       ... 1.0000e-10
Integration weight cutoff        WCut        ... 1.0000e-14
Partially contracted basis set               ... on
Rotationally invariant grid construction     ... off
Angular grids for H and He will be reduced by one unit
Diffuse basis detected: some atoms will have their outermost
                        angular grid increased by 1.

Total number of grid points                  ...     4363
Total number of batches                      ...       37
Average number of points per batch           ...      117
Average number of grid points per atom       ...      873
UseSFitting                                  ... on

GRIDX 2
-------
General Integration Accuracy     IntAcc      ... 4.020
Radial Grid Type                 RadialGrid  ... OptM3 with GC (2021)
Angular Grid (max. ang.)         AngularGrid ... 2 (Lebedev-110)
Angular grid pruning method      GridPruning ... 4 (adaptive)
Weight generation scheme         WeightScheme... mBecke (2022)
Basis function cutoff            BFCut       ... 1.0000e-10
Integration weight cutoff        WCut        ... 1.0000e-14
Partially contracted basis set               ... on
Rotationally invariant grid construction     ... off
Angular grids for H and He will be reduced by one unit
Diffuse basis detected: some atoms will have their outermost
                        angular grid increased by 1.

Total number of grid points                  ...     7258
Total number of batches                      ...       60
Average number of points per batch           ...      120
Average number of grid points per atom       ...     1452
UseSFitting                                  ... on

GRIDX 3
-------
General Integration Accuracy     IntAcc      ... 4.338
Radial Grid Type                 RadialGrid  ... OptM3 with GC (2021)
Angular Grid (max. ang.)         AngularGrid ... 3 (Lebedev-194)
Angular grid pruning method      GridPruning ... 4 (adaptive)
Weight generation scheme         WeightScheme... mBecke (2022)
Basis function cutoff            BFCut       ... 1.0000e-10
Integration weight cutoff        WCut        ... 1.0000e-14
Partially contracted basis set               ... on
Rotationally invariant grid construction     ... off
Angular grids for H and He will be reduced by one unit
Diffuse basis detected: some atoms will have their outermost
                        angular grid increased by 1.

Total number of grid points                  ...    17322
Total number of batches                      ...      140
Average number of points per batch           ...      123
Average number of grid points per atom       ...     3464
UseSFitting                                  ... on
Initializing property integral containers    ... done (  0.2 sec)

SHARK setup successfully completed in   2.1 seconds

Maximum memory used throughout the entire STARTUP-calculation: 15.2 MB


           ************************************************************
           *        Program running with 2 parallel MPI-processes     *
           *              working on a common directory               *
           ************************************************************
-------------------------------------------------------------------------------
                                 ORCA GUESS
                   Start orbitals & Density for SCF / CASSCF
-------------------------------------------------------------------------------

------------
SCF SETTINGS
------------
Hamiltonian:
 Density Functional     Method          .... DFT(GTOs)
  Functional kind                       .... Exchange-Correlation
  Functional name                       .... wB97M-V exchange-correlation functional
  Functional family                     .... Hybrid MGGA
  Functional refs                              
    [ 0] N. Mardirossian and M. Head-Gordon.,  J. Chem. Phys. 144, 214110 (2016), doi: 10.1063/1.4952647
  Fraction of HF Exchange (short range) .... 0.1500
  Fraction of HF Exchange (long range)  .... 1.0000
  Range separation parameter mu         .... 0.3000
  Functional external parameters        .... 17
    Parameter  0 _cx00      =  8.500000e-01 : u^00 coefficient for exchange
    Parameter  1 _cx01      =  1.007000e+00 : u^01 coefficient for exchange
    Parameter  2 _cx10      =  2.590000e-01 : u^10 coefficient for exchange
    Parameter  3 _css00     =  4.430000e-01 : u^00 coefficient for same-spin correlation
    Parameter  4 _css04     = -1.437000e+00 : u^04 coefficient for same-spin correlation
    Parameter  5 _css10     = -4.535000e+00 : u^10 coefficient for same-spin correlation
    Parameter  6 _css20     = -3.390000e+00 : u^20 coefficient for same-spin correlation
    Parameter  7 _css43     =  4.278000e+00 : u^43 coefficient for same-spin correlation
    Parameter  8 _cos00     =  1.000000e+00 : u^00 coefficient for opposite-spin correlation
    Parameter  9 _cos10     =  1.358000e+00 : u^10 coefficient for opposite-spin correlation
    Parameter 10 _cos20     =  2.924000e+00 : u^20 coefficient for opposite-spin correlation
    Parameter 11 _cos21     = -8.812000e+00 : u^21 coefficient for opposite-spin correlation
    Parameter 12 _cos60     = -1.390000e+00 : u^60 coefficient for opposite-spin correlation
    Parameter 13 _cos61     =  9.142000e+00 : u^61 coefficient for opposite-spin correlation
    Parameter 14 _alpha     =  1.000000e+00 : fraction of HF exchange
    Parameter 15 _beta      = -8.500000e-01 : fraction of short-range exchange
    Parameter 16 _omega     =  3.000000e-01 : range-separation constant
 Long-range corrected/Screened/Range-Separated Hybrid DFT is turned on
   Amount of maximum screened exact exchange              ....  0.850000
   Range separation parameter mu (erf(mu*r12)/r12)        ....  0.300000
   NL short-range parameter             ....  6.000000
   NL long-range parameter              ....  0.010000
 RI-approximation to the Coulomb term is turned on
   Number of AuxJ basis functions       .... 133
   RIJ-COSX (HFX calculated with COS-X)).... on


General Settings:
 Integral files         IntName         .... orca
 Hartree-Fock type      HFTyp           .... RHF
 Total Charge           Charge          ....    0
 Multiplicity           Mult            ....    1
 Number of Electrons    NEL             ....   26
 Basis Dimension        Dim             ....  110
 Nuclear Repulsion      ENuc            ....     21.2121887227 Eh

Convergence Acceleration:
 AO-DIIS                CNVDIIS         .... on
   Start iteration      DIISMaxIt       ....    12
   Startup error        DIISStart       ....  0.200000
   # of expansion vecs  DIISMaxEq       ....     5
   Bias factor          DIISBfac        ....   1.050
   Max. coefficient     DIISMaxC        ....  10.000
 MO-DIIS                CNVKDIIS        .... off
 Trust-Rad. Augm. Hess. CNVTRAH         .... auto
   Auto Start mean grad. ratio tolernc. ....  1.125000
   Auto Start start iteration           ....    50
   Auto Start num. interpolation iter.  ....    10
   Max. Number of Micro iterations      ....    24
   Max. Number of Macro iterations      .... Maxiter - #DIIS iter
   Number of Davidson start vectors     ....     2
   Converg. threshold    (grad. norm)   ....   5.000e-05
   Grad. Scal. Fac. for Micro threshold ....   0.100
   Minimum threshold for Micro iter.    ....   1.000e-02
   NR start threshold (gradient norm)   ....   1.000e-04
   Initial trust radius                 ....   0.400
   Minimum AH scaling param. (alpha)    ....   1.000
   Maximum AH scaling param. (alpha)    .... 1000.000
   Quad. conv. algorithm                .... NR
   White noise on init. David. guess    .... on
   Maximum white noise                  ....   0.010
   Pseudo random numbers                .... off
   Inactive MOs                         .... canonical
   Orbital update algorithm             .... Taylor
   Preconditioner                       .... Diag
   Full preconditioner red. dimension   ....   250
 SOSCF                  CNVSOSCF        .... on
   Start iteration      SOSCFMaxIt      ....   150
   Startup grad/error   SOSCFStart      ....  0.003300
   Hessian update       SOSCFHessUp     .... L-BFGS
 Level Shifting         CNVShift        .... on
   Level shift para.    LevelShift      ....    0.2500
   Turn off err/grad.   ShiftErr        ....    0.0010
 Zerner damping         CNVZerner       .... off
 Static damping         CNVDamp         .... on
   Fraction old density DampFac         ....    0.7000
   Max. Damping (<1)    DampMax         ....    0.9800
   Min. Damping (>=0)   DampMin         ....    0.0000
   Turn off err/grad.   DampErr         ....    0.1000

SCF Procedure:
 Maximum # iterations   MaxIter         ....   125
 SCF integral mode      SCFMode         .... Direct
   Integral package                     .... SHARK and LIBINT hybrid scheme
 Reset frequency        DirectResetFreq ....    20
 Integral Threshold     Thresh          ....  1.000e-10 Eh
 Primitive CutOff       TCut            ....  1.000e-11 Eh

Convergence Tolerance:
 Convergence Check Mode ConvCheckMode   .... Total+1el-Energy
 Convergence forced     ConvForced      .... 0
 Energy Change          TolE            ....  1.000e-06 Eh
 1-El. energy change                    ....  1.000e-03 Eh
 Orbital Gradient       TolG            ....  5.000e-05
 Orbital Rotation angle TolX            ....  5.000e-05
 DIIS Error             TolErr          ....  1.000e-06

------------------------------
INITIAL GUESS: MODEL POTENTIAL
------------------------------
Loading Hartree-Fock densities                     ... done
Calculating cut-offs                               ... done
Initializing the effective Hamiltonian             ... done
Setting up the integral package (SHARK)            ... done
Starting the Coulomb interaction                   ... done (   0.1 sec)
Making the grid                                    ... done (   0.2 sec)
Mapping shells                                     ... done
Starting the XC term evaluation                    ... done (   0.1 sec)
  promolecular density results
     # of electrons  =     25.998587792
     EX              =    -33.266268071
     EC              =     -0.908344735
     EX+EC           =    -34.174612806
Transforming the Hamiltonian                       ... done (   0.3 sec)
Diagonalizing the Hamiltonian                      ... done (   0.0 sec)
Back transforming the eigenvectors                 ... done (   0.0 sec)
Now organizing SCF variables                       ... done
                      ------------------
                      INITIAL GUESS DONE (   1.1 sec)
                      ------------------
             **** ENERGY FILE WAS UPDATED (orca.en.tmp) ****
Finished Guess after   1.9 sec
Maximum memory used throughout the entire GUESS-calculation: 8.3 MB


           ************************************************************
           *        Program running with 2 parallel MPI-processes     *
           *              working on a common directory               *
           ************************************************************

-------------------------------------------------------------------------------------------
                                      ORCA LEAN-SCF
                              memory conserving SCF solver
-------------------------------------------------------------------------------------------

----------------------------------------D-I-I-S--------------------------------------------
Iteration    Energy (Eh)           Delta-E    RMSDP     MaxDP     DIISErr   Damp  Time(sec)
-------------------------------------------------------------------------------------------
               ***  Starting incremental Fock matrix formation  ***
    1    -499.8299916844473501     0.00e+00  4.98e-03  1.81e-01  1.76e-01  0.700   2.2
Warning: op=0 Small HOMO/LUMO gap (  -0.089) - skipping pre-diagonalization
         Will do a full diagonalization
    2    -499.8963227781200658    -6.63e-02  3.06e-03  1.26e-01  9.13e-02  0.700   2.4
                               ***Turning on AO-DIIS***
    3    -499.8347671953165445     6.16e-02  2.13e-03  8.80e-02  1.20e-01  0.700   2.4
    4    -499.7422610397582048     9.25e-02  1.49e-03  6.15e-02  1.50e-01  0.700   2.6
    5    -499.6553782558305556     8.69e-02  1.04e-03  4.30e-02  1.71e-01  0.700   2.0
    6    -499.5841718095788337     7.12e-02  1.03e-03  3.08e-02  1.85e-01  0.700   2.4
    7    -499.5143819793534021     6.98e-02  6.65e-04  2.15e-02  2.01e-01  0.700   2.2
    8    -499.4633081491276698     5.11e-02  4.13e-04  1.46e-02  2.21e-01  0.700   2.0
    9    -499.4395182866112464     2.38e-02  6.89e-04  2.06e-02  2.26e-01  0.700   2.7
   10    -499.4423647576421672    -2.85e-03  4.28e-03  1.76e-01  2.18e-01  0.700   2.4
   11    -499.7709236047221566    -3.29e-01  3.01e-03  1.22e-01  9.92e-02  0.700   3.1
   12    -499.8825815102757133    -1.12e-01  6.71e-03  2.64e-01  1.55e-02  0.000   3.0
   13    -499.8061679287269499     7.64e-02  1.42e-04  4.67e-03  1.66e-01  0.000   2.4
   14    -499.8105658365524278    -4.40e-03  9.62e-06  2.69e-04  1.62e-01  0.700   2.7
   15    -499.8106910960683535    -1.25e-04  1.23e-05  2.89e-04  1.62e-01  0.700   2.4
   16    -499.8107439312344695    -5.28e-05  9.86e-06  2.26e-04  1.61e-01  0.700   2.4
   17    -499.8107714955277743    -2.76e-05  5.07e-03  1.76e-01  1.61e-01  0.700   3.6
   18    -499.9018917955294228    -9.11e-02  3.15e-03  1.22e-01  4.47e-02  0.700   2.1
   19    -499.8338181679490617     6.81e-02  7.11e-03  2.84e-01  9.83e-02  0.000   2.6
   20    -499.3370136481595409     4.97e-01  3.01e-04  6.42e-03  2.99e-01  0.000   2.1
               *** Restarting incremental Fock matrix formation ***
                             ****Resetting DIIS****
Warning: op=0 Small HOMO/LUMO gap (  -0.786) - skipping pre-diagonalization
         LevelShift set to 0.886 Eh
         Will do a full diagonalization
   21    -499.3432130832047733    -6.20e-03  3.20e-03  1.27e-01  2.90e-01  0.700   2.9
   22    -499.4537328025456873    -1.11e-01  2.86e-03  7.82e-02  1.68e-01  0.700   3.5
   23    -499.5884044262834323    -1.35e-01  2.72e-03  9.94e-02  1.82e-01  0.700   2.2
   24    -499.7239618619362318    -1.36e-01  2.24e-03  9.52e-02  1.76e-01  0.700   2.6
   25    -499.8084926601409279    -8.45e-02  1.86e-03  7.76e-02  1.22e-01  0.700   1.7
   26    -499.8505597594287337    -4.21e-02  1.55e-03  6.15e-02  1.11e-01  0.700   2.3
   27    -499.8643932169541131    -1.38e-02  1.26e-03  4.67e-02  1.34e-01  0.700   2.8
   28    -499.8626388160954548     1.75e-03  1.02e-03  3.38e-02  1.50e-01  0.700   2.7
   29    -499.8567983921511768     5.84e-03  8.51e-04  2.23e-02  1.56e-01  0.700   2.0
   30    -499.8537407938487149     3.06e-03  7.25e-04  2.30e-02  1.54e-01  0.700   2.0
   31    -499.8550385851311830    -1.30e-03  6.15e-04  2.17e-02  1.46e-01  0.700   2.4
   32    -499.8595731011897669    -4.53e-03  9.14e-04  3.53e-02  1.35e-01  0.700   2.6
   33    -499.8756976298434438    -1.61e-02  1.60e-03  4.42e-02  1.29e-01  0.700   1.9
   34    -499.9013253703062674    -2.56e-02  1.29e-03  3.25e-02  1.12e-01  0.700   2.3
   35    -499.9206216929737820    -1.93e-02  9.18e-04  2.57e-02  9.22e-02  0.700   2.2
   36    -499.9336298129045417    -1.30e-02  2.16e-03  6.30e-02  7.24e-02  0.000   2.2
   37    -499.9561578252634035    -2.25e-02  5.26e-04  1.47e-02  1.69e-02  0.000   2.3
   38    -499.9571214395939478    -9.64e-04  4.21e-04  9.82e-03  1.09e-02  0.000   2.6
   39    -499.9575966236498061    -4.75e-04  2.90e-04  5.50e-03  7.51e-03  0.000   2.5
   40    -499.9577546659055542    -1.58e-04  1.60e-04  3.14e-03  8.84e-03  0.000   2.4
               *** Restarting incremental Fock matrix formation ***
                             ****Resetting DIIS****
Warning: op=0 Small HOMO/LUMO gap (   0.069) - skipping pre-diagonalization
         Will do a full diagonalization
   41    -499.9578020032959103    -4.73e-05  1.05e-03  3.52e-02  9.82e-03  0.000   2.9
   42    -499.9540576083994665     3.74e-03  4.48e-04  1.58e-02  5.29e-02  0.000   2.9
   43    -499.9572029496343930    -3.15e-03  1.70e-04  5.90e-03  2.38e-02  0.000   2.4
   44    -499.9577591398563072    -5.56e-04  8.69e-05  2.98e-03  1.34e-02  0.000   1.7
   45    -499.9579248080477782    -1.66e-04  1.04e-04  3.28e-03  8.22e-03  0.000   2.2
                              *** Initializing SOSCF ***
---------------------------------------S-O-S-C-F--------------------------------------
Iteration    Energy (Eh)           Delta-E    RMSDP     MaxDP     MaxGrad    Time(sec)
--------------------------------------------------------------------------------------
   46    -499.9580200772223861    -9.53e-05  5.06e-05  1.24e-03  2.64e-03     2.4
               *** Restarting incremental Fock matrix formation ***
   47    -499.9580150458067465     5.03e-06  8.28e-05  1.46e-03  2.75e-04     2.9
   48    -499.9580112385015127     3.81e-06  4.58e-05  1.00e-03  1.10e-03     2.2
   49    -499.9580178593457731    -6.62e-06  4.00e-05  1.07e-03  2.26e-04     3.1
   50    -499.9580204879483745    -2.63e-06  4.14e-04  1.19e-02  2.25e-04     2.3
   51    -499.9580370770006539    -1.66e-05  1.71e-04  5.00e-03  1.75e-03     2.7
   52    -499.9580497513699129    -1.27e-05  1.32e-03  3.74e-02  1.82e-03     2.9
   53    -499.9581140860481128    -6.43e-05  2.59e-04  5.95e-03  3.76e-03     2.1

       ******************************************************************************
       ***                                                                        ***
       ***                               Auto-TRAH                                ***
       ***                               ---------                                ***
       *** the maximum gradient error decreased on average only by a factor   1.0 ***
       *** during the last  10 iterations                                         ***
       ***                                                                        ***
       ***               Leaving SCF to start the TRAH-SCF procedure              ***
       ***                                                                        ***
       ******************************************************************************

 --------------------------------------------------------------------------------------------
   Iter.        energy            ||Error||_2        Shift      TRadius  Mac/Mic        Rej.
 --------------------------------------------------------------------------------------------
    0       -499.958258779942     1.605794e-02                     0.400 (TRAH MAcro)   No
    0     dE    -2.930111e-05     8.695384e-03    -5.8601e-05      0.005 (TRAH MIcro)
    0     dE    -3.899483e-05     4.185080e-03    -7.7985e-05      0.008 (TRAH MIcro)
    0     dE    -5.037078e-05     8.679172e-03    -1.0069e-04      0.022 (TRAH MIcro)
    0     dE    -7.121671e-05     9.992798e-03    -1.4201e-04      0.054 (TRAH MIcro)
    0     dE    -8.343751e-05     4.522838e-03    -1.6595e-04      0.075 (TRAH MIcro)
    0     dE    -8.395375e-05     1.241752e-03    -1.6695e-04      0.076 (TRAH MIcro)
    1       -499.958373081496     1.213530e-02                     0.480 (TRAH MAcro)   No
    1     dE    -1.880154e-05     3.748038e-03    -3.7602e-05      0.004 (TRAH MIcro)
    1     dE    -2.733661e-05     1.023962e-02    -5.4666e-05      0.012 (TRAH MIcro)
    1     dE    -6.538665e-05     1.923022e-02    -1.3016e-04      0.069 (TRAH MIcro)
    1     dE    -7.868979e-05     5.657581e-03    -1.5613e-04      0.090 (TRAH MIcro)
    1     dE    -8.011606e-05     1.508480e-03    -1.5889e-04      0.092 (TRAH MIcro)
    1     dE    -8.018907e-05     4.019525e-04    -1.5903e-04      0.092 (TRAH MIcro)
    2       -499.958468085655     1.815917e-02                     0.576 (TRAH MAcro)   No
    2     dE    -4.047974e-05     4.944363e-03    -8.0956e-05      0.006 (TRAH MIcro)
    2     dE    -4.660794e-05     6.193843e-03    -9.3208e-05      0.009 (TRAH MIcro)
    2     dE    -6.744559e-05     1.311587e-02    -1.3467e-04      0.041 (TRAH MIcro)
    2     dE    -7.606822e-05     5.949769e-03    -1.5167e-04      0.055 (TRAH MIcro)
    2     dE    -7.709744e-05     9.076461e-04    -1.5369e-04      0.057 (TRAH MIcro)
    3       -499.958571569508     7.251848e-03                     0.691 (TRAH MAcro)   No
    3     dE    -6.526839e-06     2.575232e-03    -1.3054e-05      0.002 (TRAH MIcro)
    3     dE    -1.549379e-05     9.789252e-03    -3.0981e-05      0.014 (TRAH MIcro)
    3     dE    -5.271070e-05     1.294577e-02    -1.0477e-04      0.079 (TRAH MIcro)
    3     dE    -6.900443e-05     4.822097e-03    -1.3643e-04      0.107 (TRAH MIcro)
    3     dE    -7.091718e-05     1.647001e-03    -1.4011e-04      0.111 (TRAH MIcro)
    3     dE    -7.099808e-05     3.236513e-04    -1.4027e-04      0.111 (TRAH MIcro)
    4       -499.958601078014     2.649178e-02                     0.691 (TRAH MAcro)   No
    4     dE    -8.511348e-05     6.982879e-03    -1.7021e-04      0.009 (TRAH MIcro)
    4     dE    -8.962916e-05     2.745632e-03    -1.7924e-04      0.010 (TRAH MIcro)
    4     dE    -9.436189e-05     7.214188e-03    -1.8867e-04      0.016 (TRAH MIcro)
    4     dE    -9.860286e-05     4.697017e-03    -1.9707e-04      0.026 (TRAH MIcro)
    4     dE    -9.955474e-05     1.298775e-03    -1.9895e-04      0.028 (TRAH MIcro)
    5       -499.958711358177     2.468467e-03                     0.829 (TRAH MAcro)   No
    5     dE    -6.972028e-07     3.603147e-03    -1.3944e-06      0.001 (TRAH MIcro)
    5     dE    -6.412266e-06     1.016881e-02    -1.2822e-05      0.014 (TRAH MIcro)
    5     dE    -2.902810e-05     1.273194e-02    -5.7764e-05      0.071 (TRAH MIcro)
    5     dE    -5.140729e-05     5.584656e-03    -1.0118e-04      0.127 (TRAH MIcro)
    5     dE    -5.344162e-05     1.731042e-03    -1.0504e-04      0.132 (TRAH MIcro)
    5     dE    -5.354402e-05     3.284357e-04    -1.0524e-04      0.133 (TRAH MIcro)
    5     dE    -5.355135e-05     1.081386e-04    -1.0525e-04      0.133 (TRAH MIcro)
 ---------------------------------
          TRAH Step control 
 ---------------------------------
  predicted energy change =    -5.355134525228e-05
  actual energy  change   =     1.104977058048e-04
  energy change ratio     = -2.063397
  old trust radius        = 0.829440
  new trust radius        = 0.555725
  reject step?            = YES
    6       -499.958600860471     2.468467e-03                     0.556 (TRAH MAcro)  Yes
    7       -499.958600860471     3.804309e-02                     0.556 (TRAH MAcro)   No
    7     dE    -1.745248e-04     1.030187e-02    -3.4899e-04      0.013 (TRAH MIcro)
    7     dE    -1.806796e-04     1.828752e-03    -3.6129e-04      0.014 (TRAH MIcro)
    8       -499.958783926572     1.984242e-03                     0.667 (TRAH MAcro)   No
    8     dE    -2.004755e-07     2.956130e-03    -4.0095e-07      0.000 (TRAH MIcro)
    8     dE    -6.971498e-07     1.775679e-03    -1.3943e-06      0.002 (TRAH MIcro)
    8     dE    -1.550885e-06     4.111029e-03    -3.1016e-06      0.007 (TRAH MIcro)
    8     dE    -5.852850e-06     7.111783e-03    -1.1691e-05      0.035 (TRAH MIcro)
    8     dE    -8.738274e-06     3.485147e-03    -1.7424e-05      0.055 (TRAH MIcro)
    8     dE    -8.941972e-06     4.172574e-04    -1.7827e-05      0.056 (TRAH MIcro)
    8     dE    -8.950968e-06     5.238840e-05    -1.7845e-05      0.056 (TRAH MIcro)
    9       -499.958788896968     6.897528e-03                     0.667 (TRAH MAcro)   No
    9     dE    -5.855417e-06     1.920005e-03    -1.1711e-05      0.002 (TRAH MIcro)
    9     dE    -6.082239e-06     3.710585e-04    -1.2164e-05      0.003 (TRAH MIcro)
   10       -499.958794999717     3.803326e-04                     0.800 (TRAH MAcro)   No
   10     dE    -1.944232e-08     1.120371e-03    -3.8885e-08      0.000 (TRAH MIcro)
   10     dE    -3.499055e-08     6.850398e-04    -6.9981e-08      0.001 (TRAH MIcro)
   10     dE    -1.331954e-07     1.439490e-03    -2.6639e-07      0.003 (TRAH MIcro)
   10     dE    -4.925127e-07     1.363440e-03    -9.8487e-07      0.013 (TRAH MIcro)
   10     dE    -6.179653e-07     7.192667e-04    -1.2356e-06      0.016 (TRAH MIcro)
   10     dE    -6.257280e-07     6.657563e-05    -1.2511e-06      0.016 (TRAH MIcro)
   10     dE    -6.259746e-07     1.358367e-05    -1.2516e-06      0.016 (TRAH MIcro)
   11       -499.958795652540     5.857236e-04                     0.960 (TRAH MAcro)   No
   11     dE    -4.155523e-08     1.715246e-04    -8.3112e-08      0.000 (TRAH MIcro)
   11     dE    -4.348932e-08     3.601840e-05    -8.6980e-08      0.000 (TRAH MIcro)
   12       -499.958795696019     3.656429e-05                           (NR   MAcro)

               *****************************************************
               *                     SUCCESS                       *
               *           SCF CONVERGED AFTER 120 CYCLES          *
               *****************************************************


------------------
NL GRID GENERATION
------------------

General Integration Accuracy     IntAcc      ... 4.004
Radial Grid Type                 RadialGrid  ... OptM3 with GC (2021)
Angular Grid (max. ang.)         AngularGrid ... 2 (Lebedev-110)
Angular grid pruning method      GridPruning ... 4 (adaptive)
Weight generation scheme         WeightScheme... mBecke (2022)
Basis function cutoff            BFCut       ... 1.0000e-10
Integration weight cutoff        WCut        ... 1.0000e-14
Partially contracted basis set               ... off
Rotationally invariant grid construction     ... off
Angular grids for H and He will be reduced by one unit
Diffuse basis detected: some atoms will have their outermost
                        angular grid increased by 1.

Total number of grid points                  ...     8465
Total number of batches                      ...      134
Average number of points per batch           ...       63
Average number of grid points per atom       ...     1693
Final grid set up in    0.4 sec

-------------------------------------------------------------------------------
                    post-SCF DFT-NL dispersion correction                      
-------------------------------------------------------------------------------

SCF Energy:     -499.958795696 
NL    Energy:      0.110429250 
SC+NL Energy:   -499.848366446 
NL done in  :              0.5 sec
-------------------------------------------------------------------------------
Recomputing exchange energy using gridx3       ... done (    2.151 sec)
Old exchange energy                            :     -8.466815073 Eh
New exchange energy                            :     -8.466814536 Eh
Exchange energy change after final integration :      0.000000537 Eh
Total energy after final integration           :   -499.848365910 Eh
Warning: op=0 Small HOMO/LUMO gap (   0.078) - skipping pre-diagonalization
             **** ENERGY FILE WAS UPDATED (orca.en.tmp) ****

----------------
TOTAL SCF ENERGY
----------------

Total Energy       :       -499.84836590977642 Eh          -13601.56553 eV

Components:
Nuclear Repulsion  :         21.21218872274415 Eh             577.21300 eV
Electronic Energy  :       -521.17098441876317 Eh          -14181.78347 eV
One Electron Energy:       -730.67115535608002 Eh          -19882.57295 eV
Two Electron Energy:        209.50017093731685 Eh            5700.78947 eV

Virial components:
Potential Energy   :       -998.84170647451185 Eh          -27179.86463 eV
Kinetic Energy     :        498.99334056473543 Eh           13578.29910 eV
Virial Ratio       :          2.00171350051300

DFT components:
N(Alpha)           :       12.999918965403 electrons
N(Beta)            :       12.999918965403 electrons
N(Total)           :       25.999837930806 electrons
NL Energy, E(C,NL) :        0.110429249538 Eh       
E(XC)              :      -26.038093774109 Eh       

---------------
SCF CONVERGENCE
---------------

  Last Energy change         ...   -4.3479e-08  Tolerance :   1.0000e-06
  Last MAX-Density change    ...    2.8276e-02  Tolerance :   1.0000e-05
  Last RMS-Density change    ...    1.0500e-03  Tolerance :   1.0000e-06
  Last DIIS Error            ...    2.6397e-03  Tolerance :   1.0000e-06
  Last Orbital Gradient      ...    3.6564e-05  Tolerance :   5.0000e-05
  Last Orbital Rotation      ...    2.1984e-04  Tolerance :   5.0000e-05


----------------
ORBITAL ENERGIES
----------------

  NO   OCC          E(Eh)            E(eV) 
   0   2.0000    -101.781993     -2769.6288 
   1   2.0000     -10.526424      -286.4386 
   2   2.0000      -9.551949      -259.9217 
   3   2.0000      -7.255662      -197.4366 
   4   2.0000      -7.249016      -197.2557 
   5   2.0000      -7.249016      -197.2557 
   6   2.0000      -0.929427       -25.2910 
   7   2.0000      -0.815100       -22.1800 
   8   2.0000      -0.658387       -17.9156 
   9   2.0000      -0.658381       -17.9155 
  10   2.0000      -0.329650        -8.9702 
  11   2.0000      -0.329650        -8.9702 
  12   2.0000      -0.286584        -7.7983 
  13   0.0000      -0.208548        -5.6749 
  14   0.0000      -0.009191        -0.2501 
  15   0.0000       0.069552         1.8926 
  16   0.0000       0.069599         1.8939 
  17   0.0000       0.092809         2.5254 
  18   0.0000       0.105698         2.8762 
  19   0.0000       0.105714         2.8766 
  20   0.0000       0.112575         3.0633 
  21   0.0000       0.112603         3.0641 
  22   0.0000       0.120888         3.2895 
  23   0.0000       0.159801         4.3484 
*Only the first 10 virtual orbitals were printed.

                    ********************************
                    * MULLIKEN POPULATION ANALYSIS *
                    ********************************

-----------------------
MULLIKEN ATOMIC CHARGES
-----------------------
   0 C :   -0.255436
   1 Cl:   -0.461121
   2 H :    0.238900
   3 H :    0.238705
   4 H :    0.238952
Sum of atomic charges:   -0.0000000

--------------------------------
MULLIKEN REDUCED ORBITAL CHARGES
--------------------------------
  0 C s       :     3.398561  s :     3.398561
      pz      :     1.174923  p :     2.830738
      px      :     0.480797
      py      :     1.175018
      dz2     :     0.008550  d :     0.024134
      dxz     :     0.000003
      dyz     :     0.010056
      dx2y2   :     0.005519
      dxy     :     0.000007
      f0      :     0.000885  f :     0.002003
      f+1     :     0.000023
      f-1     :     0.000181
      f+2     :     0.000631
      f-2     :     0.000000
      f+3     :     0.000039
      f-3     :     0.000244

  1 Cls       :     6.000103  s :     6.000103
      pz      :     3.999950  p :    11.460631
      px      :     3.460739
      py      :     3.999942
      dz2     :     0.000065  d :     0.000301
      dxz     :     0.000021
      dyz     :     0.000000
      dx2y2   :     0.000194
      dxy     :     0.000021
      f0      :     0.000010  f :     0.000086
      f+1     :     0.000011
      f-1     :     0.000002
      f+2     :     0.000017
      f-2     :     0.000000
      f+3     :     0.000019
      f-3     :     0.000026

  2 H s       :     0.715164  s :     0.715164
      pz      :     0.019274  p :     0.045936
      px      :     0.019331
      py      :     0.007331

  3 H s       :     0.715355  s :     0.715355
      pz      :     0.011564  p :     0.045940
      px      :     0.019333
      py      :     0.015043

  4 H s       :     0.715117  s :     0.715117
      pz      :     0.009090  p :     0.045931
      px      :     0.019304
      py      :     0.017537



                     *******************************
                     * LOEWDIN POPULATION ANALYSIS *
                     *******************************

----------------------
LOEWDIN ATOMIC CHARGES
----------------------
   0 C :    0.364214
   1 Cl:   -0.461511
   2 H :    0.032433
   3 H :    0.032424
   4 H :    0.032440

-------------------------------
LOEWDIN REDUCED ORBITAL CHARGES
-------------------------------
  0 C s       :     2.935556  s :     2.935556
      pz      :     1.092693  p :     2.598027
      px      :     0.412630
      py      :     1.092704
      dz2     :     0.034106  d :     0.094419
      dxz     :     0.000004
      dyz     :     0.042018
      dx2y2   :     0.018280
      dxy     :     0.000010
      f0      :     0.002709  f :     0.007785
      f+1     :     0.000004
      f-1     :     0.000531
      f+2     :     0.002488
      f-2     :     0.000000
      f+3     :     0.000007
      f-3     :     0.002047

  1 Cls       :     6.000084  s :     6.000084
      pz      :     3.999950  p :    11.461051
      px      :     3.461159
      py      :     3.999941
      dz2     :     0.000062  d :     0.000290
      dxz     :     0.000021
      dyz     :     0.000000
      dx2y2   :     0.000186
      dxy     :     0.000021
      f0      :     0.000010  f :     0.000086
      f+1     :     0.000011
      f-1     :     0.000002
      f+2     :     0.000017
      f-2     :     0.000000
      f+3     :     0.000019
      f-3     :     0.000026

  2 H s       :     0.735226  s :     0.735226
      pz      :     0.129249  p :     0.232341
      px      :     0.041961
      py      :     0.061131

  3 H s       :     0.735249  s :     0.735249
      pz      :     0.085313  p :     0.232328
      px      :     0.041941
      py      :     0.105073

  4 H s       :     0.735230  s :     0.735230
      pz      :     0.071012  p :     0.232329
      px      :     0.041947
      py      :     0.119369



                      *****************************
                      * MAYER POPULATION ANALYSIS *
                      *****************************

  NA   - Mulliken gross atomic population
  ZA   - Total nuclear charge
  QA   - Mulliken gross atomic charge
  VA   - Mayer's total valence
  BVA  - Mayer's bonded valence
  FA   - Mayer's free valence

  ATOM       NA         ZA         QA         VA         BVA        FA
  0 C      6.2554     6.0000    -0.2554     3.4945     3.4945    -0.0000
  1 Cl    17.4611    17.0000    -0.4611     0.7874     0.7874    -0.0000
  2 H      0.7611     1.0000     0.2389     0.9958     0.9958    -0.0000
  3 H      0.7613     1.0000     0.2387     0.9959     0.9959    -0.0000
  4 H      0.7610     1.0000     0.2390     0.9956     0.9956    -0.0000

  Mayer bond orders larger than 0.100000
B(  0-C ,  1-Cl) :   0.7028 B(  0-C ,  2-H ) :   0.9306 B(  0-C ,  3-H ) :   0.9307 
B(  0-C ,  4-H ) :   0.9305 

-------
TIMINGS
-------

Total SCF time: 0 days 0 hours 4 min 36 sec 

Total time                  ....     276.862 sec
Sum of individual times     ....     221.707 sec  ( 80.1%)

SCF preparation             ....       0.878 sec  (  0.3%)
Fock matrix formation       ....     173.243 sec  ( 62.6%)
  Startup                   ....       7.970 sec  (  4.6% of F)
  Split-RI-J                ....      33.887 sec  ( 19.6% of F)
  Chain of spheres X        ....      93.730 sec  ( 54.1% of F)
  XC integration            ....      24.160 sec  ( 13.9% of F)
    XC Preparation          ....       0.000 sec  (  0.0% of XC)
    Basis function eval.    ....       3.009 sec  ( 12.5% of XC)
    Density eval.           ....       5.217 sec  ( 21.6% of XC)
    XC-Functional eval.     ....       2.484 sec  ( 10.3% of XC)
    XC-Potential eval.      ....       5.517 sec  ( 22.8% of XC)
Diagonalization             ....       0.000 sec  (  0.0%)
Density matrix formation    ....      11.105 sec  (  4.0%)
Total Energy calculation    ....       4.126 sec  (  1.5%)
Population analysis         ....       0.347 sec  (  0.1%)
Orbital Transformation      ....       7.108 sec  (  2.6%)
Orbital Orthonormalization  ....       0.000 sec  (  0.0%)
DIIS solution               ....      22.531 sec  (  8.1%)
SOSCF solution              ....       1.930 sec  (  0.7%)
NR solution                 ....       0.009 sec  (  0.0%)
Grid generation             ....       0.430 sec  (  0.2%)
Finished LeanSCF after 277.0 sec

Maximum memory used throughout the entire LEANSCF-calculation: 10.4 MB

-------------------------   --------------------
FINAL SINGLE POINT ENERGY      -499.848365909776
-------------------------   --------------------



           ************************************************************
           *        Program running with 2 parallel MPI-processes     *
           *              working on a common directory               *
           ************************************************************

------------------------------------------------------------------------------
                              ORCA PROPERTY CALCULATIONS
------------------------------------------------------------------------------

GBWName                                 ... orca.gbw
Number of atoms                         ...      5
Number of basis functions               ...    110
Max core memory                         ...   1024 MB

Electric properties:
Dipole moment                           ... YES
Quadrupole moment                       ...  NO
Static polarizability (Dipole/Dipole)   ...  NO
Static polarizability (Dipole/Quad.)    ...  NO
Static polarizability (Quad./Quad.)     ...  NO
Static polarizability (Velocity)        ...  NO

Atomic electric properties:
Dipole moment                           ...  NO
Quadrupole moment                       ...  NO
Static polarizability                   ...  NO

Choice of electric origin               ... Center of mass
Position of electric origin             ...     9.267439    -0.000323    -0.000190

General magnetic properties:
Magnetizability                         ...  NO

EPR properties:
g-Tensor (aka g-matrix)                 ...  NO
Zero-Field splitting spin-orbit         ...  NO
Zero-field splitting spin-spin          ...  NO
Hyperfine couplings                     ...  NO (   0 nuclei)
Quadrupole couplings                    ...  NO (   0 nuclei)
Contact density                         ...  NO (   0 nuclei)

NMR properties:
Chemical shifts                         ...  NO (   0 nuclei)
Spin-rotation constants                 ...  NO (   0 nuclei)
Spin-spin couplings                     ...  NO (   0 nuclei,    0 pairs)

Choice of magnetic origin               ... GIAO
Position of magnetic origin             ...     0.000000     0.000000     0.000000

Properties with geometric perturbations:
SCF Hessian                             ...  NO
IR spectrum                             ...  NO
VCD spectrum                            ...  NO
X-ray spectroscopy properties:
SCF XES/XAS/RIXS spectra                ...  NO


-------------
DIPOLE MOMENT
-------------

Method             : SCF
Type of density    : Electron Density
Multiplicity       :   1
Irrep              :   0
Energy             :  -499.8483659097764189 Eh
Relativity type    : 
Basis              : AO
                                X                 Y                 Z
Electronic contribution:     10.627468566      -0.000649921      -0.000228913
Nuclear contribution   :    -16.631056223       0.000883476       0.000251950
                        -----------------------------------------
Total Dipole Moment    :     -6.003587657       0.000233555       0.000023037
                        -----------------------------------------
Magnitude (a.u.)       :      6.003587662
Magnitude (Debye)      :     15.259907112



--------------------
Rotational spectrum 
--------------------
 
Rotational constants in cm-1:             4.801377             0.032477             0.032477 
Rotational constants in MHz :        143941.673722           973.634151           973.634038 

Dipole components along the rotational axes: 
x,y,z [a.u.] :    -6.003588    -0.000165    -0.000145 
x,y,z [Debye]:   -15.259907    -0.000419    -0.000370 

 

Dipole moment calculation done in   0.2 sec 

Maximum memory used throughout the entire PROP-calculation: 5.1 MB

         *************************************************************
                               MULTIPLE XYZ STEP   2
         *************************************************************
---------------------------------
CARTESIAN COORDINATES (ANGSTROEM)
---------------------------------
  C      0.009847    0.000108   -0.000013
  Cl     6.908284   -0.000317   -0.000202
  H      0.014151    0.127898   -1.069947
  H      0.002725    0.862784    0.645631
  H      0.009853   -0.990393    0.424291

----------------------------
CARTESIAN COORDINATES (A.U.)
----------------------------
  NO LB      ZA    FRAG     MASS         X           Y           Z
   0 C     6.0000    0    12.011    0.018608    0.000204   -0.000025
   1 Cl   17.0000    0    35.453   13.054765   -0.000599   -0.000382
   2 H     1.0000    0     1.008    0.026742    0.241692   -2.021907
   3 H     1.0000    0     1.008    0.005150    1.630425    1.220066
   4 H     1.0000    0     1.008    0.018619   -1.871572    0.801794

--------------------------------
INTERNAL COORDINATES (ANGSTROEM)
--------------------------------
 C      0   0   0     0.000000000000     0.00000000     0.00000000
 Cl     1   0   0     6.898437015681     0.00000000     0.00000000
 H      1   2   0     1.077547016548    89.77000525     0.00000000
 H      1   2   3     1.077551288151    90.38246185   239.99907883
 H      1   2   3     1.077555620584    89.99705437   119.99999252

---------------------------
INTERNAL COORDINATES (A.U.)
---------------------------
 C      0   0   0     0.000000000000     0.00000000     0.00000000
 Cl     1   0   0    13.036156711742     0.00000000     0.00000000
 H      1   2   0     2.036268757700    89.77000525     0.00000000
 H      1   2   3     2.036276829860    90.38246185   239.99907883
 H      1   2   3     2.036285016972    89.99705437   119.99999252



           ************************************************************
           *        Program running with 2 parallel MPI-processes     *
           *              working on a common directory               *
           ************************************************************
------------------------------------------------------------------------------
                   ___                                                        
                  /   \      - P O W E R E D   B Y -                         
                 /     \                                                     
                 |  |  |   _    _      __       _____    __    __             
                 |  |  |  | |  | |    /  \     |  _  \  |  |  /  |          
                  \  \/   | |  | |   /    \    | | | |  |  | /  /          
                 / \  \   | |__| |  /  /\  \   | |_| |  |  |/  /          
                |  |  |   |  __  | /  /__\  \  |    /   |      \           
                |  |  |   | |  | | |   __   |  |    \   |  |\   \          
                \     /   | |  | | |  |  |  |  | |\  \  |  | \   \       
                 \___/    |_|  |_| |__|  |__|  |_| \__\ |__|  \__/        
                                                                              
                      - O R C A' S   B I G   F R I E N D -                    
                                      &                                       
                       - I N T E G R A L  F E E D E R -                       
                                                                              
 v1 FN, 2020, v2 2021, v3 2022-2024                                           
------------------------------------------------------------------------------


----------------------
SHARK INTEGRAL PACKAGE
----------------------

Number of atoms                             ...      5
Number of basis functions                   ...    110
Number of shells                            ...     44
Maximum angular momentum                    ...      3
Integral batch strategy                     ... SHARK/LIBINT Hybrid
RI-J (if used) integral strategy            ... SPLIT-RIJ (Revised 2003 algorithm where possible)
Printlevel                                  ...      1
Contraction scheme used                     ... SEGMENTED contraction
Prescreening option                         ... SCHWARTZ
   Thresh                                   ... 1.000e-10
   Tcut                                     ... 1.000e-11
   Tpresel                                  ... 1.000e-11 
Coulomb Range Separation                    ... NOT USED
Exchange Range Separation                   ... Long Range
   Mu parameter                             ... 3.000e-01
   Scaling (regular/separated)              ... 1.500e-01 8.500e-01
Multipole approximations                    ... NOT USED
Finite Nucleus Model                        ... NOT USED
CABS basis                                  ... NOT available
Auxiliary Coulomb fitting basis             ... AVAILABLE
   # of basis functions in Aux-J            ...    133
   # of shells in Aux-J                     ...     47
   Maximum angular momentum in Aux-J        ...      4
Auxiliary J/K fitting basis                 ... NOT available
Auxiliary Correlation fitting basis         ... NOT available
Auxiliary 'external' fitting basis          ... NOT available

Checking pre-screening integrals            ... done (  0.0 sec) Dimension = 44
Check shell pair data                       ... done (  0.0 sec)
Shell pair information
Shell pair cut-off parameter TPreSel        ...   1.0e-11
Total number of shell pairs                 ...       990
Shell pairs after pre-screening             ...       793
Total number of primitive shell pairs       ...      2768
Primitive shell pairs kept                  ...      1892
          la=0 lb=0:    186 shell pairs
          la=1 lb=0:    256 shell pairs
          la=1 lb=1:    101 shell pairs
          la=2 lb=0:     99 shell pairs
          la=2 lb=1:     74 shell pairs
          la=2 lb=2:     18 shell pairs
          la=3 lb=0:     28 shell pairs
          la=3 lb=1:     21 shell pairs
          la=3 lb=2:      8 shell pairs
          la=3 lb=3:      2 shell pairs

Calculating one electron integrals          ... done (  0.0 sec)
Calculating RI/J V-Matrix + Cholesky decomp.... done (  0.1 sec)
Calculating Nuclear repulsion               ... done (  0.0 sec) ENN=     21.379466472136 Eh

Diagonalization of the overlap matrix:
Smallest eigenvalue                        ... 6.587e-05
Time for diagonalization                   ...    0.001 sec
Threshold for overlap eigenvalues          ... 1.000e-07
Number of eigenvalues below threshold      ... 0
Time for construction of square roots      ...    0.041 sec
Total time needed                          ...    0.199 sec

-------------------
DFT GRID GENERATION
-------------------

General Integration Accuracy     IntAcc      ... 4.388
Radial Grid Type                 RadialGrid  ... OptM3 with GC (2021)
Angular Grid (max. ang.)         AngularGrid ... 4 (Lebedev-302)
Angular grid pruning method      GridPruning ... 4 (adaptive)
Weight generation scheme         WeightScheme... mBecke (2022)
Basis function cutoff            BFCut       ... 1.0000e-10
Integration weight cutoff        WCut        ... 1.0000e-14
Partially contracted basis set               ... off
Rotationally invariant grid construction     ... off
Angular grids for H and He will be reduced by one unit
Diffuse basis detected: some atoms will have their outermost
                        angular grid increased by 1.

Total number of grid points                  ...    24728
Total number of batches                      ...      389
Average number of points per batch           ...       63
Average number of grid points per atom       ...     4946

--------------------
COSX GRID GENERATION
--------------------

GRIDX 1
-------
General Integration Accuracy     IntAcc      ... 3.816
Radial Grid Type                 RadialGrid  ... OptM3 with GC (2021)
Angular Grid (max. ang.)         AngularGrid ... 1 (Lebedev-50)
Angular grid pruning method      GridPruning ... 4 (adaptive)
Weight generation scheme         WeightScheme... mBecke (2022)
Basis function cutoff            BFCut       ... 1.0000e-10
Integration weight cutoff        WCut        ... 1.0000e-14
Partially contracted basis set               ... on
Rotationally invariant grid construction     ... off
Angular grids for H and He will be reduced by one unit
Diffuse basis detected: some atoms will have their outermost
                        angular grid increased by 1.

Total number of grid points                  ...     4363
Total number of batches                      ...       37
Average number of points per batch           ...      117
Average number of grid points per atom       ...      873
UseSFitting                                  ... on

GRIDX 2
-------
General Integration Accuracy     IntAcc      ... 4.020
Radial Grid Type                 RadialGrid  ... OptM3 with GC (2021)
Angular Grid (max. ang.)         AngularGrid ... 2 (Lebedev-110)
Angular grid pruning method      GridPruning ... 4 (adaptive)
Weight generation scheme         WeightScheme... mBecke (2022)
Basis function cutoff            BFCut       ... 1.0000e-10
Integration weight cutoff        WCut        ... 1.0000e-14
Partially contracted basis set               ... on
Rotationally invariant grid construction     ... off
Angular grids for H and He will be reduced by one unit
Diffuse basis detected: some atoms will have their outermost
                        angular grid increased by 1.

Total number of grid points                  ...     7257
Total number of batches                      ...       60
Average number of points per batch           ...      120
Average number of grid points per atom       ...     1451
UseSFitting                                  ... on

GRIDX 3
-------
General Integration Accuracy     IntAcc      ... 4.338
Radial Grid Type                 RadialGrid  ... OptM3 with GC (2021)
Angular Grid (max. ang.)         AngularGrid ... 3 (Lebedev-194)
Angular grid pruning method      GridPruning ... 4 (adaptive)
Weight generation scheme         WeightScheme... mBecke (2022)
Basis function cutoff            BFCut       ... 1.0000e-10
Integration weight cutoff        WCut        ... 1.0000e-14
Partially contracted basis set               ... on
Rotationally invariant grid construction     ... off
Angular grids for H and He will be reduced by one unit
Diffuse basis detected: some atoms will have their outermost
                        angular grid increased by 1.

Total number of grid points                  ...    17322
Total number of batches                      ...      139
Average number of points per batch           ...      124
Average number of grid points per atom       ...     3464
UseSFitting                                  ... on
Initializing property integral containers    ... done (  0.2 sec)

SHARK setup successfully completed in   2.6 seconds

Maximum memory used throughout the entire STARTUP-calculation: 15.3 MB


           ************************************************************
           *        Program running with 2 parallel MPI-processes     *
           *              working on a common directory               *
           ************************************************************
Occupation numbers will be reassigned to an Aufbau configuration
             **** ENERGY FILE WAS UPDATED (orca.en.tmp) ****
Finished Guess after   0.9 sec
Maximum memory used throughout the entire GUESS-calculation: 8.4 MB


           ************************************************************
           *        Program running with 2 parallel MPI-processes     *
           *              working on a common directory               *
           ************************************************************
----------------------------------------D-I-I-S--------------------------------------------
Iteration    Energy (Eh)           Delta-E    RMSDP     MaxDP     DIISErr   Damp  Time(sec)
-------------------------------------------------------------------------------------------
               ***  Starting incremental Fock matrix formation  ***
                              *** Initializing SOSCF ***
---------------------------------------S-O-S-C-F--------------------------------------
Iteration    Energy (Eh)           Delta-E    RMSDP     MaxDP     MaxGrad    Time(sec)
--------------------------------------------------------------------------------------
    1    -499.9595533062566233     0.00e+00  2.46e-05  8.93e-04  1.91e-04     3.8
               *** Restarting incremental Fock matrix formation ***
    2    -499.9595542675719457    -9.61e-07  2.40e-05  6.74e-04  1.03e-04     2.7
    3    -499.9595534112148130     8.56e-07  1.70e-05  5.42e-04  5.14e-04     1.8
                 **** Energy Check signals convergence ****

               *****************************************************
               *                     SUCCESS                       *
               *           SCF CONVERGED AFTER   3 CYCLES          *
               *****************************************************


------------------
NL GRID GENERATION
------------------

General Integration Accuracy     IntAcc      ... 4.004
Radial Grid Type                 RadialGrid  ... OptM3 with GC (2021)
Angular Grid (max. ang.)         AngularGrid ... 2 (Lebedev-110)
Angular grid pruning method      GridPruning ... 4 (adaptive)
Weight generation scheme         WeightScheme... mBecke (2022)
Basis function cutoff            BFCut       ... 1.0000e-10
Integration weight cutoff        WCut        ... 1.0000e-14
Partially contracted basis set               ... off
Rotationally invariant grid construction     ... off
Angular grids for H and He will be reduced by one unit
Diffuse basis detected: some atoms will have their outermost
                        angular grid increased by 1.

Total number of grid points                  ...     8465
Total number of batches                      ...      135
Average number of points per batch           ...       62
Average number of grid points per atom       ...     1693
Final grid set up in    0.1 sec

-------------------------------------------------------------------------------
                    post-SCF DFT-NL dispersion correction                      
-------------------------------------------------------------------------------

SCF Energy:     -499.959553411 
NL    Energy:      0.110426020 
SC+NL Energy:   -499.849127391 
NL done in  :              0.6 sec
-------------------------------------------------------------------------------
Recomputing exchange energy using gridx3       ... done (    2.211 sec)
Old exchange energy                            :     -8.467141472 Eh
New exchange energy                            :     -8.467140964 Eh
Exchange energy change after final integration :      0.000000509 Eh
Total energy after final integration           :   -499.849126882 Eh
             **** ENERGY FILE WAS UPDATED (orca.en.tmp) ****

----------------
TOTAL SCF ENERGY
----------------

Total Energy       :       -499.84912688234601 Eh          -13601.58623 eV

Components:
Nuclear Repulsion  :         21.37946647213592 Eh             581.76486 eV
Electronic Energy  :       -521.33901988335072 Eh          -14186.35595 eV
One Electron Energy:       -730.99332023435261 Eh          -19891.33950 eV
Two Electron Energy:        209.65430035100192 Eh            5704.98355 eV

Virial components:
Potential Energy   :       -998.84123682822690 Eh          -27179.85185 eV
Kinetic Energy     :        498.99210994588088 Eh           13578.26562 eV
Virial Ratio       :          2.00171749596714

DFT components:
N(Alpha)           :       12.999933108904 electrons
N(Beta)            :       12.999933108904 electrons
N(Total)           :       25.999866217807 electrons
NL Energy, E(C,NL) :        0.110426020077 Eh       
E(XC)              :      -26.037747923251 Eh       

---------------
SCF CONVERGENCE
---------------

  Last Energy change         ...   -8.5636e-07  Tolerance :   1.0000e-06
  Last MAX-Density change    ...    5.4192e-04  Tolerance :   1.0000e-05
  Last RMS-Density change    ...    1.6968e-05  Tolerance :   1.0000e-06
  Last DIIS Error            ...    9.8532e-04  Tolerance :   1.0000e-06
  Last Orbital Gradient      ...    5.1372e-04  Tolerance :   5.0000e-05
  Last Orbital Rotation      ...    1.1318e-03  Tolerance :   5.0000e-05


Total SCF time: 0 days 0 hours 0 min 13 sec 
Finished LeanSCF after  14.0 sec

[...]
    1     dE    -1.807708e-05     1.606479e-02    -3.6153e-05      0.004 (TRAH MIcro)
    1     dE    -4.058913e-05     1.950917e-02    -8.1167e-05      0.012 (TRAH MIcro)
    1     dE    -7.886378e-05     4.065160e-02    -1.5754e-04      0.034 (TRAH MIcro)
    1     dE    -2.236316e-04     2.574101e-02    -4.4053e-04      0.124 (TRAH MIcro)
    1     dE    -4.685194e-04     2.557667e-02    -8.7472e-04      0.267 (TRAH MIcro)
    1     dE    -5.108686e-04     9.910759e-03    -9.4261e-04      0.290 (TRAH MIcro)
    1     dE    -5.192463e-04     3.681174e-03    -9.5580e-04      0.294 (TRAH MIcro)
    1     dE    -5.200535e-04     1.531642e-03    -9.5709e-04      0.295 (TRAH MIcro)
    1     dE    -5.201316e-04     3.554108e-04    -9.5722e-04      0.295 (TRAH MIcro)
    2       -492.692461340559     5.597053e-02                     0.480 (TRAH MAcro)   No
    2     dE    -2.596217e-04     3.413604e-02    -5.1908e-04      0.018 (TRAH MIcro)
    2     dE    -3.143915e-04     1.554839e-02    -6.2852e-04      0.020 (TRAH MIcro)
    2     dE    -3.181572e-04     4.537446e-03    -6.3604e-04      0.021 (TRAH MIcro)
    3       -492.692773981819     4.533316e-03                     0.576 (TRAH MAcro)   No
    3     dE    -1.638045e-06     8.839541e-03    -3.2761e-06      0.001 (TRAH MIcro)
    3     dE    -3.531227e-06     4.386034e-03    -7.0624e-06      0.003 (TRAH MIcro)
    3     dE    -6.726059e-06     4.541249e-03    -1.3451e-05      0.009 (TRAH MIcro)
    3     dE    -1.144037e-05     8.436196e-03    -2.2873e-05      0.019 (TRAH MIcro)
    3     dE    -3.022152e-05     1.829127e-02    -6.0225e-05      0.060 (TRAH MIcro)
    3     dE    -4.612807e-05     5.575476e-03    -9.1420e-05      0.096 (TRAH MIcro)
    3     dE    -4.893264e-05     4.145960e-03    -9.6862e-05      0.102 (TRAH MIcro)
    3     dE    -4.978801e-05     1.190901e-03    -9.8518e-05      0.104 (TRAH MIcro)
    3     dE    -4.984962e-05     5.074921e-04    -9.8637e-05      0.104 (TRAH MIcro)
    3     dE    -4.985914e-05     1.282302e-04    -9.8655e-05      0.104 (TRAH MIcro)
    4       -492.692818484129     7.116847e-03                     0.691 (TRAH MAcro)   No
    4     dE    -4.153366e-06     4.417310e-03    -8.3067e-06      0.002 (TRAH MIcro)
    4     dE    -5.032605e-06     1.546561e-03    -1.0065e-05      0.002 (TRAH MIcro)
    4     dE    -5.068166e-06     7.883803e-04    -1.0136e-05      0.002 (TRAH MIcro)
    4     dE    -5.088169e-06     2.891244e-04    -1.0176e-05      0.003 (TRAH MIcro)
    5       -492.692823554523     2.892975e-04                     0.829 (TRAH MAcro)   No
    5     dE    -2.219520e-09     9.012102e-05    -4.4464e-09      0.000 (TRAH MIcro)
    5     dE    -2.873394e-09     9.343136e-05    -5.7478e-09      0.000 (TRAH MIcro)
    5     dE    -3.586216e-09     8.458384e-05    -7.1726e-09      0.000 (TRAH MIcro)
    5     dE    -4.826232e-09     1.785508e-04    -9.6525e-09      0.000 (TRAH MIcro)
    5     dE    -7.223236e-09     4.037296e-04    -1.4446e-08      0.001 (TRAH MIcro)
    5     dE    -1.193636e-08     3.262099e-04    -2.3873e-08      0.001 (TRAH MIcro)
    5     dE    -1.595661e-08     1.209192e-04    -3.1913e-08      0.002 (TRAH MIcro)
    5     dE    -1.645404e-08     3.913036e-05    -3.2908e-08      0.002 (TRAH MIcro)
    5     dE    -1.650738e-08     1.502384e-05    -3.3015e-08      0.002 (TRAH MIcro)
    6       -492.692823560399     1.672932e-05                           (NR   MAcro)

               *****************************************************
               *                     SUCCESS                       *
               *           SCF CONVERGED AFTER 100 CYCLES          *
               *****************************************************


------------------
NL GRID GENERATION
------------------

General Integration Accuracy     IntAcc      ... 4.004
Radial Grid Type                 RadialGrid  ... OptM3 with GC (2021)
Angular Grid (max. ang.)         AngularGrid ... 2 (Lebedev-110)
Angular grid pruning method      GridPruning ... 4 (adaptive)
Weight generation scheme         WeightScheme... mBecke (2022)
Basis function cutoff            BFCut       ... 1.0000e-10
Integration weight cutoff        WCut        ... 1.0000e-14
Partially contracted basis set               ... off
Rotationally invariant grid construction     ... off
Angular grids for H and He will be reduced by one unit
Diffuse basis detected: some atoms will have their outermost
                        angular grid increased by 1.

Total number of grid points                  ...     8473
Total number of batches                      ...      135
Average number of points per batch           ...       62
Average number of grid points per atom       ...     1695
Final grid set up in    0.4 sec

-------------------------------------------------------------------------------
                    post-SCF DFT-NL dispersion correction                      
-------------------------------------------------------------------------------

SCF Energy:     -492.692823560 
NL    Energy:      0.108774467 
SC+NL Energy:   -492.584049093 
NL done in  :              0.6 sec
-------------------------------------------------------------------------------
Recomputing exchange energy using gridx3       ... done (    4.042 sec)
Old exchange energy                            :     -8.616555017 Eh
New exchange energy                            :     -8.616493259 Eh
Exchange energy change after final integration :      0.000061758 Eh
Total energy after final integration           :   -492.583987335 Eh
             **** ENERGY FILE WAS UPDATED (orca.en.tmp) ****

----------------
TOTAL SCF ENERGY
----------------

Total Energy       :       -492.58398733488588 Eh          -13403.89174 eV

Components:
Nuclear Repulsion  :        103.48779945179068 Eh            2816.04619 eV
Electronic Energy  :       -596.18062301218970 Eh          -16222.89951 eV
One Electron Energy:       -867.73145576768422 Eh          -23612.17333 eV
Two Electron Energy:        271.55083275549458 Eh            7389.27382 eV

Virial components:
Potential Energy   :      -1002.74894482814955 Eh          -27286.18599 eV
Kinetic Energy     :        510.16495749326367 Eh           13882.29426 eV
Virial Ratio       :          1.96553865587953

DFT components:
N(Alpha)           :       13.000066388272 electrons
N(Beta)            :       13.000066388272 electrons
N(Total)           :       26.000132776543 electrons
NL Energy, E(C,NL) :        0.108774467475 Eh       
E(XC)              :      -26.992923452704 Eh       

---------------
SCF CONVERGENCE
---------------

  Last Energy change         ...   -5.8761e-09  Tolerance :   1.0000e-06
  Last MAX-Density change    ...    1.9012e-01  Tolerance :   1.0000e-05
  Last RMS-Density change    ...    1.0124e-02  Tolerance :   1.0000e-06
  Last DIIS Error            ...    2.7002e-03  Tolerance :   1.0000e-06
  Last Orbital Gradient      ...    1.6729e-05  Tolerance :   5.0000e-05
  Last Orbital Rotation      ...    1.6996e-03  Tolerance :   5.0000e-05


Total SCF time: 0 days 0 hours 5 min 38 sec 
Finished LeanSCF after 338.8 sec

Maximum memory used throughout the entire LEANSCF-calculation: 20.1 MB

-------------------------   --------------------
FINAL SINGLE POINT ENERGY      -492.583987334886
-------------------------   --------------------



           ************************************************************
           *        Program running with 2 parallel MPI-processes     *
           *              working on a common directory               *
           ************************************************************

------------------------------------------------------------------------------
                              ORCA PROPERTY CALCULATIONS
------------------------------------------------------------------------------

GBWName                                 ... orca.gbw
Number of atoms                         ...      5
Number of basis functions               ...    110
Max core memory                         ...   1024 MB

Electric properties:
Dipole moment                           ... YES
Quadrupole moment                       ...  NO
Static polarizability (Dipole/Dipole)   ...  NO
Static polarizability (Dipole/Quad.)    ...  NO
Static polarizability (Quad./Quad.)     ...  NO
Static polarizability (Velocity)        ...  NO

Atomic electric properties:
Dipole moment                           ...  NO
Quadrupole moment                       ...  NO
Static polarizability                   ...  NO

Choice of electric origin               ... Center of mass
Position of electric origin             ...     5.379802     0.177124     0.017548

General magnetic properties:
Magnetizability                         ...  NO

EPR properties:
g-Tensor (aka g-matrix)                 ...  NO
Zero-Field splitting spin-orbit         ...  NO
Zero-field splitting spin-spin          ...  NO
Hyperfine couplings                     ...  NO (   0 nuclei)
Quadrupole couplings                    ...  NO (   0 nuclei)
Contact density                         ...  NO (   0 nuclei)

NMR properties:
Chemical shifts                         ...  NO (   0 nuclei)
Spin-rotation constants                 ...  NO (   0 nuclei)
Spin-spin couplings                     ...  NO (   0 nuclei,    0 pairs)

Choice of magnetic origin               ... GIAO
Position of magnetic origin             ...     0.000000     0.000000     0.000000

Properties with geometric perturbations:
SCF Hessian                             ...  NO
IR spectrum                             ...  NO
VCD spectrum                            ...  NO
X-ray spectroscopy properties:
SCF XES/XAS/RIXS spectra                ...  NO


-------------
DIPOLE MOMENT
-------------

Method             : SCF
Type of density    : Electron Density
Multiplicity       :   1
Irrep              :   0
Energy             :  -492.5839873348858760 Eh
Relativity type    : 
Basis              : AO
                                X                 Y                 Z
Electronic contribution:      9.052367237      -0.325724137      -0.371385650
Nuclear contribution   :     -7.298172676      -0.405789981      -0.017146373
                        -----------------------------------------
Total Dipole Moment    :      1.754194561      -0.731514118      -0.388532023
                        -----------------------------------------
Magnitude (a.u.)       :      1.939914585
Magnitude (Debye)      :      4.930871011



--------------------
Rotational spectrum 
--------------------
 
Rotational constants in cm-1:             1.125793             0.582080             0.471710 
Rotational constants in MHz :         33750.435059         17450.320338         14141.511275 

Dipole components along the rotational axes: 
x,y,z [a.u.] :     1.772197    -0.217674    -0.758423 
x,y,z [Debye]:     4.504566    -0.553284    -1.927758 

 

Dipole moment calculation done in   0.2 sec 

Maximum memory used throughout the entire PROP-calculation: 13.0 MB
                              **** MULTIPLE XYZ DONE ***

                         SUMMARY OF THE CALCULATED SURFACE

-------------------------
MULTIPLE XYZ SCAN RESULTS
-------------------------

The Calculated Surface using the 'Actual Energy'
   1.00000000 -499.84836591
   2.00000000 -499.84912688
   3.00000000 -499.84991893
   4.00000000 -499.85074111
   5.00000000 -499.85160107
   6.00000000 -499.85249744
   7.00000000 -499.85343451
   8.00000000 -499.85441570
   9.00000000 -499.85544506
  10.00000000 -499.85652673
  11.00000000 -499.85766460
  12.00000000 -499.85886242
  13.00000000 -499.86012432
  14.00000000 -499.86145483
  15.00000000 -499.86285877
  16.00000000 -499.86434199
  17.00000000 -499.86591205
  18.00000000 -499.86757787
  19.00000000 -499.86935062
  20.00000000 -499.87124405
  21.00000000 -499.87327357
  22.00000000 -499.87545353
  23.00000000 -499.87779724
  24.00000000 -499.88031514
  25.00000000 -499.88301947
  26.00000000 -499.88592411
  27.00000000 -499.88904416
  28.00000000 -499.89239799
  29.00000000 -499.89600799
  30.00000000 -499.89989987
  31.00000000 -499.90409971
  32.00000000 -499.90864195
  33.00000000 -499.91354718
  34.00000000 -499.91884136
  35.00000000 -499.92455897
  36.00000000 -499.93072563
  37.00000000 -499.93737600
  38.00000000 -499.94454669
  39.00000000 -499.95226880
  40.00000000 -499.96056100
  41.00000000 -499.96945164
  42.00000000 -499.97897590
  43.00000000 -499.98913969
  44.00000000 -499.99992556
  45.00000000 -500.01131191
  46.00000000 -500.02321922
  47.00000000 -500.03549218
  48.00000000 -500.04787849
  49.00000000 -500.05995838
  50.00000000 -500.07103945
  51.00000000 -500.08006054
  52.00000000 -500.08532955
  53.00000000 -500.08424508
  54.00000000 -500.07274200
  55.00000000 -500.04446221
  56.00000000 -499.98938218
  57.00000000 -499.89161406
  58.00000000 -499.72568907
  59.00000000 -499.45038158
  60.00000000 -498.99875835
  61.00000000 -498.26313004
  62.00000000 -497.08084862
  63.00000000 -495.25625034
  64.00000000 -492.58398733

The Calculated Surface using the SCF energy
   1.00000000 -499.84836591
   2.00000000 -499.84912688
   3.00000000 -499.84991893
   4.00000000 -499.85074111
   5.00000000 -499.85160107
   6.00000000 -499.85249744
   7.00000000 -499.85343451
   8.00000000 -499.85441570
   9.00000000 -499.85544506
  10.00000000 -499.85652673
  11.00000000 -499.85766460
  12.00000000 -499.85886242
  13.00000000 -499.86012432
  14.00000000 -499.86145483
  15.00000000 -499.86285877
  16.00000000 -499.86434199
  17.00000000 -499.86591205
  18.00000000 -499.86757787
  19.00000000 -499.86935062
  20.00000000 -499.87124405
  21.00000000 -499.87327357
  22.00000000 -499.87545353
  23.00000000 -499.87779724
  24.00000000 -499.88031514
  25.00000000 -499.88301947
  26.00000000 -499.88592411
  27.00000000 -499.88904416
  28.00000000 -499.89239799
  29.00000000 -499.89600799
  30.00000000 -499.89989987
  31.00000000 -499.90409971
  32.00000000 -499.90864195
  33.00000000 -499.91354718
  34.00000000 -499.91884136
  35.00000000 -499.92455897
  36.00000000 -499.93072563
  37.00000000 -499.93737600
  38.00000000 -499.94454669
  39.00000000 -499.95226880
  40.00000000 -499.96056100
  41.00000000 -499.96945164
  42.00000000 -499.97897590
  43.00000000 -499.98913969
  44.00000000 -499.99992556
  45.00000000 -500.01131191
  46.00000000 -500.02321922
  47.00000000 -500.03549218
  48.00000000 -500.04787849
  49.00000000 -500.05995838
  50.00000000 -500.07103945
  51.00000000 -500.08006054
  52.00000000 -500.08532955
  53.00000000 -500.08424508
  54.00000000 -500.07274200
  55.00000000 -500.04446221
  56.00000000 -499.98938218
  57.00000000 -499.89161406
  58.00000000 -499.72568907
  59.00000000 -499.45038158
  60.00000000 -498.99875835
  61.00000000 -498.26313004
  62.00000000 -497.08084862
  63.00000000 -495.25625034
  64.00000000 -492.58398733


--------------------------------
SUGGESTED CITATIONS FOR THIS RUN
--------------------------------

Below you find a list of papers that are relevant to this ORCA run
We neither can nor want to force you to cite these papers, but we appreciate if you do
You receive ORCA, which is the product of decades of hard work by many enthusiastic individuals, for free
The only thing we kindly ask in return is that you cite our papers,
We deeply appreciate it, if you show your appreciation for ORCA by not just citing the generic ORCA reference.

Please note that relegating all ORCA citations to the supporting information does *not* help us.
SI sections are not indexed - citations you put there will not count into any citation statistics
But we need these citations in order to attract the funding resources that allow us to do what we are doing

Therefore, if you are a happy ORCA user, please consider citing a few of the papers listed below in the main body of your paper

In addition to the list printed below, the program has created the file orca.bibtex that contains the list in bibtex format
You can import this file easily into all common literature databanks and citation aid programs


List of essential papers. We consider these as the minimum necessary citations

  1. Neese,F.
     Software update: the ORCA program system, version 5.0
     WIRES Comput. Molec. Sci., 2022 12(1)e1606
     doi.org/10.1002/wcms.1606

List of papers to cite with high priority. The work reported in these papers was absolutely
necessary for this run to complete.
Our perspective: the developers of density functionals and basis sets usually get cited in chemistry papers
Good! But without the algorithms to do something with them, the functionals or basis sets would not do anything.
Hence, in our opinion, the algorithm design and method developments papers are equally worthy of getting cited

  1. Neese,F.
     An improvement of the resolution of the identity approximation for the formation of the Coulomb matrix
     J. Comp. Chem., 2003 24(14)1740-1747
     doi.org/10.1002/jcc.10318
  2. Neese,F.; Wennmohs,F.; Hansen,A.; Becker,U.
     Efficient, approximate and parallel Hartree-Fock and hybrid DFT calculations. A 'chain-of-spheres' algorithm for the Hartree-Fock exchange
     Chem. Phys., 2009 356(1-3)98-109
     doi.org/10.1016/j.chemphys.2008.10.036
  3. Helmich-Paris,B.; de Souza,B.; Neese,F.; Izsák,R.
     An improved chain of spheres for exchange algorithm
     J. Chem. Phys., 2021 155 104109
     doi.org/doi: 10.1063/5.0058766.
  4. Helmich-Paris,B.
     A trust-region augmented Hessian implementation for restricted and unrestricted Hartree–Fock and Kohn–Sham methods
     J. Chem. Phys., 2021 154 164104
     doi.org/10.1063/5.0040798
  5. Neese,F.
     The SHARK Integral Generation and Digestion System
     J. Comp. Chem., 2022  1-16
     doi.org/10.1002/jcc.26942
  6. Lehtola,S.; Steigemann,C.; Oliveira,M.; Marques,M.
     Recent developments in Libxc - A comprehensive library of functionals for density functional theory
     Software X, 2018 7 
     doi.org/10.1016/j.softx.2017.11.002

List of suggested additional citations. These are papers that are important in the 'surrounding' of 
of this run, or papers that preceded the highly important papers. If you like your results we are grateful for a citation.

  1. Izsak,R.; Neese,F.
     An overlap fitted chain of spheres exchange method
     J. Chem. Phys., 2011 135 144105
     doi.org/10.1063/1.3646921
  2. Izsak,R.; Hansen,A.; Neese,F.
     The resolution of identity and chain of spheres approximations for the LPNO-CCSD singles Fock term
     Molec. Phys., 2012 110 2413-2417
     doi.org/10.1080/00268976.2012.687466
  3. Neese,F.
     The ORCA program system
     WIRES Comput. Molec. Sci., 2012 2(1)73-78
     doi.org/10.1002/wcms.81
  4. Izsak,R.; Neese,F.; Klopper,W.
     Robust fitting techniques in the chain of spheres approximation to the Fock exchange: The role of the complementary space
     J. Chem. Phys., 2013 139 
     doi.org/10.1063/1.4819264
  5. Neese,F.
     Software update: the ORCA program system, version 4.0
     WIRES Comput. Molec. Sci., 2018 8(1)1-6
     doi.org/10.1002/wcms.1327
  6. Neese,F.; Wennmohs,F.; Becker,U.; Riplinger,C.
     The ORCA quantum chemistry program package
     J. Chem. Phys., 2020 152 Art. No. L224108
     doi.org/10.1063/5.0004608

List of optional additional citations

  1. Neese,F.
     Approximate second-order SCF convergence for spin unrestricted wavefunctions
     Chem. Phys. Lett., 2000 325(1-3)93-98
     doi.org/10.1016/s0009-2614(00)00662-x

Timings for individual modules:

Sum of individual times          ...     2892.118 sec (=  48.202 min)
Startup calculation              ...      238.102 sec (=   3.968 min)   8.2 %
SCF iterations                   ...     2601.801 sec (=  43.363 min)  90.0 %
Property calculations            ...       52.215 sec (=   0.870 min)   1.8 %
                             ****ORCA TERMINATED NORMALLY****
TOTAL RUN TIME: 0 days 0 hours 48 minutes 44 seconds 910 msec
